
.Version 9.2.2 of ABINIT 
.(MPI version, prepared for a x86_64_linux_gnu9.3 computer) 

.Copyright (C) 1998-2020 ABINIT group . 
 ABINIT comes with ABSOLUTELY NO WARRANTY.
 It is free software, and you are welcome to redistribute it
 under certain conditions (GNU General Public License,
 see ~abinit/COPYING or http://www.gnu.org/copyleft/gpl.txt).

 ABINIT is a project of the Universite Catholique de Louvain,
 Corning Inc. and other collaborators, see ~abinit/doc/developers/contributors.txt .
 Please read https://docs.abinit.org/theory/acknowledgments for suggested
 acknowledgments of the ABINIT effort.
 For more information, see https://www.abinit.org .

.Starting date : Sun 25 Feb 2024.
- ( at 18h15 )
  
- The starting date is more than 3 years after the initial release
- of this version of ABINIT, namely Nov 2020.
- This version of ABINIT is not supported anymore.
- Action: please, switch to a more recent version of ABINIT.
- input  file    -> Cs2TiI6.in
- output file    -> Cs2TiI6.out
- root for input  files -> Cs2TiI6i
- root for output files -> Cs2TiI6o


 DATASET    1 : space group P4 m m (# 99); Bravais tP (primitive tetrag.)
================================================================================
 Values of the parameters that define the memory need for DATASET  1.
     intxc =       0    ionmov =       0      iscf =       7    lmnmax =       6
     lnmax =       6     mgfft =     180  mpssoang =       3    mqgrid =    8166
     natom =      10  nloc_mem =       1    nspden =       1   nspinor =       1
    nsppol =       1      nsym =       8    n1xccc =    2501    ntypat =       2
    occopt =       1   xclevel =       2
-    mband =          77        mffmem =           1         mkmem =           2
       mpw =       11783          nfft =      233280          nkpt =          10
================================================================================
P This job should need less than                     105.476 Mbytes of memory.
  Rough estimation (10% accuracy) of disk space for files :
_ WF disk file :    138.444 Mbytes ; DEN or POT disk file :      1.782 Mbytes.
================================================================================


 DATASET    2 : space group P4 m m (# 99); Bravais tP (primitive tetrag.)
================================================================================
 Values of the parameters that define the memory need for DATASET  2.
     intxc =       0    ionmov =       0      iscf =      -2    lmnmax =       6
     lnmax =       6     mgfft =     180  mpssoang =       3    mqgrid =    8166
     natom =      10  nloc_mem =       1    nspden =       1   nspinor =       1
    nsppol =       1      nsym =       8    n1xccc =    2501    ntypat =       2
    occopt =       1   xclevel =       2
-    mband =         180        mffmem =           1         mkmem =           2
       mpw =       11783          nfft =      233280          nkpt =          10
================================================================================
P This job should need less than                     112.281 Mbytes of memory.
  Rough estimation (10% accuracy) of disk space for files :
_ WF disk file :    323.632 Mbytes ; DEN or POT disk file :      1.782 Mbytes.
================================================================================


 DATASET    3 : space group P4 m m (# 99); Bravais tP (primitive tetrag.)
================================================================================
 Values of the parameters that define the memory need for DATASET  3.
     intxc =       0    ionmov =       0      iscf =      -2    lmnmax =       6
     lnmax =       6     mgfft =     180  mpssoang =       3    mqgrid =    8166
     natom =      10  nloc_mem =       1    nspden =       1   nspinor =       1
    nsppol =       1      nsym =       8    n1xccc =    2501    ntypat =       2
    occopt =       1   xclevel =       2
-    mband =         180        mffmem =           1         mkmem =          11
       mpw =       11783          nfft =      233280          nkpt =          64
================================================================================
P This job should need less than                     405.232 Mbytes of memory.
  Rough estimation (10% accuracy) of disk space for files :
_ WF disk file :   2071.232 Mbytes ; DEN or POT disk file :      1.782 Mbytes.
================================================================================


 DATASET    4 : space group P4 m m (# 99); Bravais tP (primitive tetrag.)
================================================================================
 Values of the parameters that define the memory need for DATASET  4 (RF).
     intxc =       0      iscf =      -3    lmnmax =       6     lnmax =       6
     mgfft =     180  mpssoang =       3    mqgrid =    8166     natom =      10
  nloc_mem =       1    nspden =       1   nspinor =       1    nsppol =       1
      nsym =       8    n1xccc =    2501    ntypat =       2    occopt =       1
   xclevel =       2
-    mband =         180        mffmem =           1         mkmem =          11
-   mkqmem =          11        mk1mem =          11           mpw =       11783
      nfft =      233280          nkpt =          64
================================================================================
P This job should need less than                    1159.286 Mbytes of memory.
  Rough estimation (10% accuracy) of disk space for files :
_ WF disk file :  -2024.768 Mbytes ; DEN or POT disk file :      1.782 Mbytes.
================================================================================


 DATASET    5 : space group P4 m m (# 99); Bravais tP (primitive tetrag.)
================================================================================
 Values of the parameters that define the memory need for DATASET  5 (RF).
     intxc =       0      iscf =      -3    lmnmax =       6     lnmax =       6
     mgfft =     180  mpssoang =       3    mqgrid =    8166     natom =      10
  nloc_mem =       1    nspden =       1   nspinor =       1    nsppol =       1
      nsym =       8    n1xccc =    2501    ntypat =       2    occopt =       1
   xclevel =       2
-    mband =         180        mffmem =           1         mkmem =          11
-   mkqmem =          11        mk1mem =          11           mpw =       11783
      nfft =      233280          nkpt =          64
================================================================================
P This job should need less than                    1159.286 Mbytes of memory.
  Rough estimation (10% accuracy) of disk space for files :
_ WF disk file :  -2024.768 Mbytes ; DEN or POT disk file :      1.782 Mbytes.
================================================================================


 DATASET    6 : space group P4 m m (# 99); Bravais tP (primitive tetrag.)
================================================================================
 Values of the parameters that define the memory need for DATASET  6 (RF).
     intxc =       0      iscf =      -3    lmnmax =       6     lnmax =       6
     mgfft =     180  mpssoang =       3    mqgrid =    8166     natom =      10
  nloc_mem =       1    nspden =       1   nspinor =       1    nsppol =       1
      nsym =       8    n1xccc =    2501    ntypat =       2    occopt =       1
   xclevel =       2
-    mband =         180        mffmem =           1         mkmem =          11
-   mkqmem =          11        mk1mem =          11           mpw =       11783
      nfft =      233280          nkpt =          64
================================================================================
P This job should need less than                    1159.286 Mbytes of memory.
  Rough estimation (10% accuracy) of disk space for files :
_ WF disk file :  -2024.768 Mbytes ; DEN or POT disk file :      1.782 Mbytes.
================================================================================

--------------------------------------------------------------------------------
------------- Echo of variables that govern the present computation ------------
--------------------------------------------------------------------------------
-
- outvars: echo of selected default values                                      
-   iomode0 =  0 , fftalg0 =112 , wfoptalg0 =  0
-
- outvars: echo of global parameters not present in the input file              
-  max_nthreads =    0
-
 -outvars: echo values of preprocessed input variables --------
            acell      7.7624316804E+00  7.7624316804E+00  7.7624316804E+00 Bohr
              amu      1.18710000E+02  7.89600000E+01
           diemac      1.20000000E+01
             ecut      2.25000000E+01 Hartree
-          fftalg         112
           getden1          0
           getden2          1
           getden3          1
           getden4          0
           getden5          0
           getden6          0
           getwfk1          0
           getwfk2          1
           getwfk3          2
           getwfk4          3
           getwfk5          3
           getwfk6          3
             iscf1          7
             iscf2         -2
             iscf3         -2
             iscf4         -3
             iscf5         -3
             iscf6         -3
              ixc          11
           jdtset        1    2    3    4    5    6
              kpt1     6.25000000E-02  6.25000000E-02  2.50000000E-01
                       1.87500000E-01  6.25000000E-02  2.50000000E-01
                       3.12500000E-01  6.25000000E-02  2.50000000E-01
                       4.37500000E-01  6.25000000E-02  2.50000000E-01
                       1.87500000E-01  1.87500000E-01  2.50000000E-01
                       3.12500000E-01  1.87500000E-01  2.50000000E-01
                       4.37500000E-01  1.87500000E-01  2.50000000E-01
                       3.12500000E-01  3.12500000E-01  2.50000000E-01
                       4.37500000E-01  3.12500000E-01  2.50000000E-01
                       4.37500000E-01  4.37500000E-01  2.50000000E-01
              kpt2     6.25000000E-02  6.25000000E-02  2.50000000E-01
                       1.87500000E-01  6.25000000E-02  2.50000000E-01
                       3.12500000E-01  6.25000000E-02  2.50000000E-01
                       4.37500000E-01  6.25000000E-02  2.50000000E-01
                       1.87500000E-01  1.87500000E-01  2.50000000E-01
                       3.12500000E-01  1.87500000E-01  2.50000000E-01
                       4.37500000E-01  1.87500000E-01  2.50000000E-01
                       3.12500000E-01  3.12500000E-01  2.50000000E-01
                       4.37500000E-01  3.12500000E-01  2.50000000E-01
                       4.37500000E-01  4.37500000E-01  2.50000000E-01
              kpt3     6.25000000E-02  6.25000000E-02  2.50000000E-01
                       1.87500000E-01  6.25000000E-02  2.50000000E-01
                       3.12500000E-01  6.25000000E-02  2.50000000E-01
                       4.37500000E-01  6.25000000E-02  2.50000000E-01
                      -4.37500000E-01  6.25000000E-02  2.50000000E-01
                      -3.12500000E-01  6.25000000E-02  2.50000000E-01
                      -1.87500000E-01  6.25000000E-02  2.50000000E-01
                      -6.25000000E-02  6.25000000E-02  2.50000000E-01
                       6.25000000E-02  1.87500000E-01  2.50000000E-01
                       1.87500000E-01  1.87500000E-01  2.50000000E-01
                       3.12500000E-01  1.87500000E-01  2.50000000E-01
                       4.37500000E-01  1.87500000E-01  2.50000000E-01
                      -4.37500000E-01  1.87500000E-01  2.50000000E-01
                      -3.12500000E-01  1.87500000E-01  2.50000000E-01
                      -1.87500000E-01  1.87500000E-01  2.50000000E-01
                      -6.25000000E-02  1.87500000E-01  2.50000000E-01
                       6.25000000E-02  3.12500000E-01  2.50000000E-01
                       1.87500000E-01  3.12500000E-01  2.50000000E-01
                       3.12500000E-01  3.12500000E-01  2.50000000E-01
                       4.37500000E-01  3.12500000E-01  2.50000000E-01
                      -4.37500000E-01  3.12500000E-01  2.50000000E-01
                      -3.12500000E-01  3.12500000E-01  2.50000000E-01
                      -1.87500000E-01  3.12500000E-01  2.50000000E-01
                      -6.25000000E-02  3.12500000E-01  2.50000000E-01
                       6.25000000E-02  4.37500000E-01  2.50000000E-01
                       1.87500000E-01  4.37500000E-01  2.50000000E-01
                       3.12500000E-01  4.37500000E-01  2.50000000E-01
                       4.37500000E-01  4.37500000E-01  2.50000000E-01
                      -4.37500000E-01  4.37500000E-01  2.50000000E-01
                      -3.12500000E-01  4.37500000E-01  2.50000000E-01
                      -1.87500000E-01  4.37500000E-01  2.50000000E-01
                      -6.25000000E-02  4.37500000E-01  2.50000000E-01
                       6.25000000E-02 -4.37500000E-01  2.50000000E-01
                       1.87500000E-01 -4.37500000E-01  2.50000000E-01
                       3.12500000E-01 -4.37500000E-01  2.50000000E-01
                       4.37500000E-01 -4.37500000E-01  2.50000000E-01
                      -4.37500000E-01 -4.37500000E-01  2.50000000E-01
                      -3.12500000E-01 -4.37500000E-01  2.50000000E-01
                      -1.87500000E-01 -4.37500000E-01  2.50000000E-01
                      -6.25000000E-02 -4.37500000E-01  2.50000000E-01
                       6.25000000E-02 -3.12500000E-01  2.50000000E-01
                       1.87500000E-01 -3.12500000E-01  2.50000000E-01
                       3.12500000E-01 -3.12500000E-01  2.50000000E-01
                       4.37500000E-01 -3.12500000E-01  2.50000000E-01
                      -4.37500000E-01 -3.12500000E-01  2.50000000E-01
                      -3.12500000E-01 -3.12500000E-01  2.50000000E-01
                      -1.87500000E-01 -3.12500000E-01  2.50000000E-01
                      -6.25000000E-02 -3.12500000E-01  2.50000000E-01
                       6.25000000E-02 -1.87500000E-01  2.50000000E-01
                       1.87500000E-01 -1.87500000E-01  2.50000000E-01
              kpt4     6.25000000E-02  6.25000000E-02  2.50000000E-01
                       1.87500000E-01  6.25000000E-02  2.50000000E-01
                       3.12500000E-01  6.25000000E-02  2.50000000E-01
                       4.37500000E-01  6.25000000E-02  2.50000000E-01
                      -4.37500000E-01  6.25000000E-02  2.50000000E-01
                      -3.12500000E-01  6.25000000E-02  2.50000000E-01
                      -1.87500000E-01  6.25000000E-02  2.50000000E-01
                      -6.25000000E-02  6.25000000E-02  2.50000000E-01
                       6.25000000E-02  1.87500000E-01  2.50000000E-01
                       1.87500000E-01  1.87500000E-01  2.50000000E-01
                       3.12500000E-01  1.87500000E-01  2.50000000E-01
                       4.37500000E-01  1.87500000E-01  2.50000000E-01
                      -4.37500000E-01  1.87500000E-01  2.50000000E-01
                      -3.12500000E-01  1.87500000E-01  2.50000000E-01
                      -1.87500000E-01  1.87500000E-01  2.50000000E-01
                      -6.25000000E-02  1.87500000E-01  2.50000000E-01
                       6.25000000E-02  3.12500000E-01  2.50000000E-01
                       1.87500000E-01  3.12500000E-01  2.50000000E-01
                       3.12500000E-01  3.12500000E-01  2.50000000E-01
                       4.37500000E-01  3.12500000E-01  2.50000000E-01
                      -4.37500000E-01  3.12500000E-01  2.50000000E-01
                      -3.12500000E-01  3.12500000E-01  2.50000000E-01
                      -1.87500000E-01  3.12500000E-01  2.50000000E-01
                      -6.25000000E-02  3.12500000E-01  2.50000000E-01
                       6.25000000E-02  4.37500000E-01  2.50000000E-01
                       1.87500000E-01  4.37500000E-01  2.50000000E-01
                       3.12500000E-01  4.37500000E-01  2.50000000E-01
                       4.37500000E-01  4.37500000E-01  2.50000000E-01
                      -4.37500000E-01  4.37500000E-01  2.50000000E-01
                      -3.12500000E-01  4.37500000E-01  2.50000000E-01
                      -1.87500000E-01  4.37500000E-01  2.50000000E-01
                      -6.25000000E-02  4.37500000E-01  2.50000000E-01
                       6.25000000E-02 -4.37500000E-01  2.50000000E-01
                       1.87500000E-01 -4.37500000E-01  2.50000000E-01
                       3.12500000E-01 -4.37500000E-01  2.50000000E-01
                       4.37500000E-01 -4.37500000E-01  2.50000000E-01
                      -4.37500000E-01 -4.37500000E-01  2.50000000E-01
                      -3.12500000E-01 -4.37500000E-01  2.50000000E-01
                      -1.87500000E-01 -4.37500000E-01  2.50000000E-01
                      -6.25000000E-02 -4.37500000E-01  2.50000000E-01
                       6.25000000E-02 -3.12500000E-01  2.50000000E-01
                       1.87500000E-01 -3.12500000E-01  2.50000000E-01
                       3.12500000E-01 -3.12500000E-01  2.50000000E-01
                       4.37500000E-01 -3.12500000E-01  2.50000000E-01
                      -4.37500000E-01 -3.12500000E-01  2.50000000E-01
                      -3.12500000E-01 -3.12500000E-01  2.50000000E-01
                      -1.87500000E-01 -3.12500000E-01  2.50000000E-01
                      -6.25000000E-02 -3.12500000E-01  2.50000000E-01
                       6.25000000E-02 -1.87500000E-01  2.50000000E-01
                       1.87500000E-01 -1.87500000E-01  2.50000000E-01
              kpt5     6.25000000E-02  6.25000000E-02  2.50000000E-01
                       1.87500000E-01  6.25000000E-02  2.50000000E-01
                       3.12500000E-01  6.25000000E-02  2.50000000E-01
                       4.37500000E-01  6.25000000E-02  2.50000000E-01
                      -4.37500000E-01  6.25000000E-02  2.50000000E-01
                      -3.12500000E-01  6.25000000E-02  2.50000000E-01
                      -1.87500000E-01  6.25000000E-02  2.50000000E-01
                      -6.25000000E-02  6.25000000E-02  2.50000000E-01
                       6.25000000E-02  1.87500000E-01  2.50000000E-01
                       1.87500000E-01  1.87500000E-01  2.50000000E-01
                       3.12500000E-01  1.87500000E-01  2.50000000E-01
                       4.37500000E-01  1.87500000E-01  2.50000000E-01
                      -4.37500000E-01  1.87500000E-01  2.50000000E-01
                      -3.12500000E-01  1.87500000E-01  2.50000000E-01
                      -1.87500000E-01  1.87500000E-01  2.50000000E-01
                      -6.25000000E-02  1.87500000E-01  2.50000000E-01
                       6.25000000E-02  3.12500000E-01  2.50000000E-01
                       1.87500000E-01  3.12500000E-01  2.50000000E-01
                       3.12500000E-01  3.12500000E-01  2.50000000E-01
                       4.37500000E-01  3.12500000E-01  2.50000000E-01
                      -4.37500000E-01  3.12500000E-01  2.50000000E-01
                      -3.12500000E-01  3.12500000E-01  2.50000000E-01
                      -1.87500000E-01  3.12500000E-01  2.50000000E-01
                      -6.25000000E-02  3.12500000E-01  2.50000000E-01
                       6.25000000E-02  4.37500000E-01  2.50000000E-01
                       1.87500000E-01  4.37500000E-01  2.50000000E-01
                       3.12500000E-01  4.37500000E-01  2.50000000E-01
                       4.37500000E-01  4.37500000E-01  2.50000000E-01
                      -4.37500000E-01  4.37500000E-01  2.50000000E-01
                      -3.12500000E-01  4.37500000E-01  2.50000000E-01
                      -1.87500000E-01  4.37500000E-01  2.50000000E-01
                      -6.25000000E-02  4.37500000E-01  2.50000000E-01
                       6.25000000E-02 -4.37500000E-01  2.50000000E-01
                       1.87500000E-01 -4.37500000E-01  2.50000000E-01
                       3.12500000E-01 -4.37500000E-01  2.50000000E-01
                       4.37500000E-01 -4.37500000E-01  2.50000000E-01
                      -4.37500000E-01 -4.37500000E-01  2.50000000E-01
                      -3.12500000E-01 -4.37500000E-01  2.50000000E-01
                      -1.87500000E-01 -4.37500000E-01  2.50000000E-01
                      -6.25000000E-02 -4.37500000E-01  2.50000000E-01
                       6.25000000E-02 -3.12500000E-01  2.50000000E-01
                       1.87500000E-01 -3.12500000E-01  2.50000000E-01
                       3.12500000E-01 -3.12500000E-01  2.50000000E-01
                       4.37500000E-01 -3.12500000E-01  2.50000000E-01
                      -4.37500000E-01 -3.12500000E-01  2.50000000E-01
                      -3.12500000E-01 -3.12500000E-01  2.50000000E-01
                      -1.87500000E-01 -3.12500000E-01  2.50000000E-01
                      -6.25000000E-02 -3.12500000E-01  2.50000000E-01
                       6.25000000E-02 -1.87500000E-01  2.50000000E-01
                       1.87500000E-01 -1.87500000E-01  2.50000000E-01
              kpt6     6.25000000E-02  6.25000000E-02  2.50000000E-01
                       1.87500000E-01  6.25000000E-02  2.50000000E-01
                       3.12500000E-01  6.25000000E-02  2.50000000E-01
                       4.37500000E-01  6.25000000E-02  2.50000000E-01
                      -4.37500000E-01  6.25000000E-02  2.50000000E-01
                      -3.12500000E-01  6.25000000E-02  2.50000000E-01
                      -1.87500000E-01  6.25000000E-02  2.50000000E-01
                      -6.25000000E-02  6.25000000E-02  2.50000000E-01
                       6.25000000E-02  1.87500000E-01  2.50000000E-01
                       1.87500000E-01  1.87500000E-01  2.50000000E-01
                       3.12500000E-01  1.87500000E-01  2.50000000E-01
                       4.37500000E-01  1.87500000E-01  2.50000000E-01
                      -4.37500000E-01  1.87500000E-01  2.50000000E-01
                      -3.12500000E-01  1.87500000E-01  2.50000000E-01
                      -1.87500000E-01  1.87500000E-01  2.50000000E-01
                      -6.25000000E-02  1.87500000E-01  2.50000000E-01
                       6.25000000E-02  3.12500000E-01  2.50000000E-01
                       1.87500000E-01  3.12500000E-01  2.50000000E-01
                       3.12500000E-01  3.12500000E-01  2.50000000E-01
                       4.37500000E-01  3.12500000E-01  2.50000000E-01
                      -4.37500000E-01  3.12500000E-01  2.50000000E-01
                      -3.12500000E-01  3.12500000E-01  2.50000000E-01
                      -1.87500000E-01  3.12500000E-01  2.50000000E-01
                      -6.25000000E-02  3.12500000E-01  2.50000000E-01
                       6.25000000E-02  4.37500000E-01  2.50000000E-01
                       1.87500000E-01  4.37500000E-01  2.50000000E-01
                       3.12500000E-01  4.37500000E-01  2.50000000E-01
                       4.37500000E-01  4.37500000E-01  2.50000000E-01
                      -4.37500000E-01  4.37500000E-01  2.50000000E-01
                      -3.12500000E-01  4.37500000E-01  2.50000000E-01
                      -1.87500000E-01  4.37500000E-01  2.50000000E-01
                      -6.25000000E-02  4.37500000E-01  2.50000000E-01
                       6.25000000E-02 -4.37500000E-01  2.50000000E-01
                       1.87500000E-01 -4.37500000E-01  2.50000000E-01
                       3.12500000E-01 -4.37500000E-01  2.50000000E-01
                       4.37500000E-01 -4.37500000E-01  2.50000000E-01
                      -4.37500000E-01 -4.37500000E-01  2.50000000E-01
                      -3.12500000E-01 -4.37500000E-01  2.50000000E-01
                      -1.87500000E-01 -4.37500000E-01  2.50000000E-01
                      -6.25000000E-02 -4.37500000E-01  2.50000000E-01
                       6.25000000E-02 -3.12500000E-01  2.50000000E-01
                       1.87500000E-01 -3.12500000E-01  2.50000000E-01
                       3.12500000E-01 -3.12500000E-01  2.50000000E-01
                       4.37500000E-01 -3.12500000E-01  2.50000000E-01
                      -4.37500000E-01 -3.12500000E-01  2.50000000E-01
                      -3.12500000E-01 -3.12500000E-01  2.50000000E-01
                      -1.87500000E-01 -3.12500000E-01  2.50000000E-01
                      -6.25000000E-02 -3.12500000E-01  2.50000000E-01
                       6.25000000E-02 -1.87500000E-01  2.50000000E-01
                       1.87500000E-01 -1.87500000E-01  2.50000000E-01
                       outvar_i_n : Printing only first  50 k-points.
           kptopt1          1
           kptopt2          1
           kptopt3          2
           kptopt4          2
           kptopt5          2
           kptopt6          2
         kptrlatt        8    0    0      0    8    0      0    0    2
          kptrlen      6.20994534E+01
P           mkmem1          2
P           mkmem2          2
P           mkmem3         11
P           mkmem4         11
P           mkmem5         11
P           mkmem6         11
P          mkqmem1          2
P          mkqmem2          2
P          mkqmem3         11
P          mkqmem4         11
P          mkqmem5         11
P          mkqmem6         11
P          mk1mem1          2
P          mk1mem2          2
P          mk1mem3         11
P          mk1mem4         11
P          mk1mem5         11
P          mk1mem6         11
            natom          10
            nband1         77
            nband2        180
            nband3        180
            nband4        180
            nband5        180
            nband6        180
           nbdbuf1          0
           nbdbuf2          2
           nbdbuf3          2
           nbdbuf4          2
           nbdbuf5          2
           nbdbuf6          2
           ndtset           6
            ngfft          36      36     180
             nkpt1         10
             nkpt2         10
             nkpt3         64
             nkpt4         64
             nkpt5         64
             nkpt6         64
            nline1          4
            nline2          4
            nline3          4
            nline4          0
            nline5          0
            nline6          0
             nqpt1          0
             nqpt2          0
             nqpt3          0
             nqpt4          1
             nqpt5          1
             nqpt6          1
            nstep1        400
            nstep2        200
            nstep3        200
            nstep4          1
            nstep5          1
            nstep6          1
             nsym           8
           ntypat           2
              occ1     2.000000  2.000000  2.000000  2.000000  2.000000  2.000000
                       2.000000  2.000000  2.000000  2.000000  2.000000  2.000000
                       2.000000  2.000000  2.000000  2.000000  2.000000  2.000000
                       2.000000  2.000000  2.000000  2.000000  2.000000  2.000000
                       2.000000  2.000000  2.000000  2.000000  2.000000  2.000000
                       2.000000  2.000000  2.000000  2.000000  2.000000  2.000000
                       2.000000  2.000000  2.000000  2.000000  2.000000  2.000000
                       2.000000  2.000000  2.000000  2.000000  2.000000  2.000000
                       2.000000  2.000000  2.000000  2.000000  2.000000  2.000000
                       2.000000  2.000000  2.000000  2.000000  2.000000  2.000000
                       2.000000  2.000000  2.000000  2.000000  2.000000  2.000000
                       2.000000  2.000000  2.000000  2.000000  2.000000  2.000000
                       2.000000  2.000000  2.000000  0.000000  0.000000
              occ4     2.000000  2.000000  2.000000  2.000000  2.000000  2.000000
                       2.000000  2.000000  2.000000  2.000000  2.000000  2.000000
                       2.000000  2.000000  2.000000  2.000000  2.000000  2.000000
                       2.000000  2.000000  2.000000  2.000000  2.000000  2.000000
                       2.000000  2.000000  2.000000  2.000000  2.000000  2.000000
                       2.000000  2.000000  2.000000  2.000000  2.000000  2.000000
                       2.000000  2.000000  2.000000  2.000000  2.000000  2.000000
                       2.000000  2.000000  2.000000  2.000000  2.000000  2.000000
                       2.000000  2.000000  2.000000  2.000000  2.000000  2.000000
                       2.000000  2.000000  2.000000  2.000000  2.000000  2.000000
                       2.000000  2.000000  2.000000  2.000000  2.000000  2.000000
                       2.000000  2.000000  2.000000  2.000000  2.000000  2.000000
                       2.000000  2.000000  2.000000  0.000000  0.000000  0.000000
                       0.000000  0.000000  0.000000  0.000000  0.000000  0.000000
                       0.000000  0.000000  0.000000  0.000000  0.000000  0.000000
                       0.000000  0.000000  0.000000  0.000000  0.000000  0.000000
                       0.000000  0.000000  0.000000  0.000000  0.000000  0.000000
                       0.000000  0.000000  0.000000  0.000000  0.000000  0.000000
                       0.000000  0.000000  0.000000  0.000000  0.000000  0.000000
                       0.000000  0.000000  0.000000  0.000000  0.000000  0.000000
                       0.000000  0.000000  0.000000  0.000000  0.000000  0.000000
                       0.000000  0.000000  0.000000  0.000000  0.000000  0.000000
                       0.000000  0.000000  0.000000  0.000000  0.000000  0.000000
                       0.000000  0.000000  0.000000  0.000000  0.000000  0.000000
                       0.000000  0.000000  0.000000  0.000000  0.000000  0.000000
                       0.000000  0.000000  0.000000  0.000000  0.000000  0.000000
                       0.000000  0.000000  0.000000  0.000000  0.000000  0.000000
                       0.000000  0.000000  0.000000  0.000000  0.000000  0.000000
                       0.000000  0.000000  0.000000  0.000000  0.000000  0.000000
                       0.000000  0.000000  0.000000  0.000000  0.000000  0.000000
              occ5     2.000000  2.000000  2.000000  2.000000  2.000000  2.000000
                       2.000000  2.000000  2.000000  2.000000  2.000000  2.000000
                       2.000000  2.000000  2.000000  2.000000  2.000000  2.000000
                       2.000000  2.000000  2.000000  2.000000  2.000000  2.000000
                       2.000000  2.000000  2.000000  2.000000  2.000000  2.000000
                       2.000000  2.000000  2.000000  2.000000  2.000000  2.000000
                       2.000000  2.000000  2.000000  2.000000  2.000000  2.000000
                       2.000000  2.000000  2.000000  2.000000  2.000000  2.000000
                       2.000000  2.000000  2.000000  2.000000  2.000000  2.000000
                       2.000000  2.000000  2.000000  2.000000  2.000000  2.000000
                       2.000000  2.000000  2.000000  2.000000  2.000000  2.000000
                       2.000000  2.000000  2.000000  2.000000  2.000000  2.000000
                       2.000000  2.000000  2.000000  0.000000  0.000000  0.000000
                       0.000000  0.000000  0.000000  0.000000  0.000000  0.000000
                       0.000000  0.000000  0.000000  0.000000  0.000000  0.000000
                       0.000000  0.000000  0.000000  0.000000  0.000000  0.000000
                       0.000000  0.000000  0.000000  0.000000  0.000000  0.000000
                       0.000000  0.000000  0.000000  0.000000  0.000000  0.000000
                       0.000000  0.000000  0.000000  0.000000  0.000000  0.000000
                       0.000000  0.000000  0.000000  0.000000  0.000000  0.000000
                       0.000000  0.000000  0.000000  0.000000  0.000000  0.000000
                       0.000000  0.000000  0.000000  0.000000  0.000000  0.000000
                       0.000000  0.000000  0.000000  0.000000  0.000000  0.000000
                       0.000000  0.000000  0.000000  0.000000  0.000000  0.000000
                       0.000000  0.000000  0.000000  0.000000  0.000000  0.000000
                       0.000000  0.000000  0.000000  0.000000  0.000000  0.000000
                       0.000000  0.000000  0.000000  0.000000  0.000000  0.000000
                       0.000000  0.000000  0.000000  0.000000  0.000000  0.000000
                       0.000000  0.000000  0.000000  0.000000  0.000000  0.000000
                       0.000000  0.000000  0.000000  0.000000  0.000000  0.000000
              occ6     2.000000  2.000000  2.000000  2.000000  2.000000  2.000000
                       2.000000  2.000000  2.000000  2.000000  2.000000  2.000000
                       2.000000  2.000000  2.000000  2.000000  2.000000  2.000000
                       2.000000  2.000000  2.000000  2.000000  2.000000  2.000000
                       2.000000  2.000000  2.000000  2.000000  2.000000  2.000000
                       2.000000  2.000000  2.000000  2.000000  2.000000  2.000000
                       2.000000  2.000000  2.000000  2.000000  2.000000  2.000000
                       2.000000  2.000000  2.000000  2.000000  2.000000  2.000000
                       2.000000  2.000000  2.000000  2.000000  2.000000  2.000000
                       2.000000  2.000000  2.000000  2.000000  2.000000  2.000000
                       2.000000  2.000000  2.000000  2.000000  2.000000  2.000000
                       2.000000  2.000000  2.000000  2.000000  2.000000  2.000000
                       2.000000  2.000000  2.000000  0.000000  0.000000  0.000000
                       0.000000  0.000000  0.000000  0.000000  0.000000  0.000000
                       0.000000  0.000000  0.000000  0.000000  0.000000  0.000000
                       0.000000  0.000000  0.000000  0.000000  0.000000  0.000000
                       0.000000  0.000000  0.000000  0.000000  0.000000  0.000000
                       0.000000  0.000000  0.000000  0.000000  0.000000  0.000000
                       0.000000  0.000000  0.000000  0.000000  0.000000  0.000000
                       0.000000  0.000000  0.000000  0.000000  0.000000  0.000000
                       0.000000  0.000000  0.000000  0.000000  0.000000  0.000000
                       0.000000  0.000000  0.000000  0.000000  0.000000  0.000000
                       0.000000  0.000000  0.000000  0.000000  0.000000  0.000000
                       0.000000  0.000000  0.000000  0.000000  0.000000  0.000000
                       0.000000  0.000000  0.000000  0.000000  0.000000  0.000000
                       0.000000  0.000000  0.000000  0.000000  0.000000  0.000000
                       0.000000  0.000000  0.000000  0.000000  0.000000  0.000000
                       0.000000  0.000000  0.000000  0.000000  0.000000  0.000000
                       0.000000  0.000000  0.000000  0.000000  0.000000  0.000000
                       0.000000  0.000000  0.000000  0.000000  0.000000  0.000000
        optdriver1          0
        optdriver2          0
        optdriver3          0
        optdriver4          1
        optdriver5          1
        optdriver6          1
            prtwf1          1
            prtwf2          1
            prtwf3          1
            prtwf4          3
            prtwf5          3
            prtwf6          3
            rfdir1          0       0       0
            rfdir2          0       0       0
            rfdir3          0       0       0
            rfdir4          1       0       0
            rfdir5          0       1       0
            rfdir6          0       0       1
           rfelfd1          0
           rfelfd2          0
           rfelfd3          0
           rfelfd4          2
           rfelfd5          2
           rfelfd6          2
            rprim      1.0000000000E+00  0.0000000000E+00  0.0000000000E+00
                       0.0000000000E+00  1.0000000000E+00  0.0000000000E+00
                       0.0000000000E+00  0.0000000000E+00  4.9263938815E+00
           shiftk      5.00000000E-01  5.00000000E-01  5.00000000E-01
          spgroup          99
           symrel      1  0  0   0  1  0   0  0  1       1  0  0   0 -1  0   0  0  1
                      -1  0  0   0 -1  0   0  0  1      -1  0  0   0  1  0   0  0  1
                       0  1  0   1  0  0   0  0  1       0  1  0  -1  0  0   0  0  1
                       0 -1  0  -1  0  0   0  0  1       0 -1  0   1  0  0   0  0  1
            tnons      0.0000000  0.0000000  0.0000000     0.0000000  0.0000000  0.0000000
                       0.0000000  0.0000000  0.0000000     0.0000000  0.0000000  0.0000000
                       0.5000000  0.5000000  0.0000000     0.5000000  0.5000000  0.0000000
                       0.5000000  0.5000000  0.0000000     0.5000000  0.5000000  0.0000000
           tolwfr      1.00000000E-20
            typat      1  1  1  1  1  2  2  2  2  2
           vdw_xc           5
              wtk1       0.06250    0.12500    0.12500    0.12500    0.06250    0.12500
                         0.12500    0.06250    0.12500    0.06250
              wtk2       0.06250    0.12500    0.12500    0.12500    0.06250    0.12500
                         0.12500    0.06250    0.12500    0.06250
              wtk3       0.01563    0.01563    0.01563    0.01563    0.01563    0.01563
                         0.01563    0.01563    0.01563    0.01563    0.01563    0.01563
                         0.01563    0.01563    0.01563    0.01563    0.01563    0.01563
                         0.01563    0.01563    0.01563    0.01563    0.01563    0.01563
                         0.01563    0.01563    0.01563    0.01563    0.01563    0.01563
                         0.01563    0.01563    0.01563    0.01563    0.01563    0.01563
                         0.01563    0.01563    0.01563    0.01563    0.01563    0.01563
                         0.01563    0.01563    0.01563    0.01563    0.01563    0.01563
                         0.01563    0.01563
              wtk4       0.01563    0.01563    0.01563    0.01563    0.01563    0.01563
                         0.01563    0.01563    0.01563    0.01563    0.01563    0.01563
                         0.01563    0.01563    0.01563    0.01563    0.01563    0.01563
                         0.01563    0.01563    0.01563    0.01563    0.01563    0.01563
                         0.01563    0.01563    0.01563    0.01563    0.01563    0.01563
                         0.01563    0.01563    0.01563    0.01563    0.01563    0.01563
                         0.01563    0.01563    0.01563    0.01563    0.01563    0.01563
                         0.01563    0.01563    0.01563    0.01563    0.01563    0.01563
                         0.01563    0.01563
              wtk5       0.01563    0.01563    0.01563    0.01563    0.01563    0.01563
                         0.01563    0.01563    0.01563    0.01563    0.01563    0.01563
                         0.01563    0.01563    0.01563    0.01563    0.01563    0.01563
                         0.01563    0.01563    0.01563    0.01563    0.01563    0.01563
                         0.01563    0.01563    0.01563    0.01563    0.01563    0.01563
                         0.01563    0.01563    0.01563    0.01563    0.01563    0.01563
                         0.01563    0.01563    0.01563    0.01563    0.01563    0.01563
                         0.01563    0.01563    0.01563    0.01563    0.01563    0.01563
                         0.01563    0.01563
              wtk6       0.01563    0.01563    0.01563    0.01563    0.01563    0.01563
                         0.01563    0.01563    0.01563    0.01563    0.01563    0.01563
                         0.01563    0.01563    0.01563    0.01563    0.01563    0.01563
                         0.01563    0.01563    0.01563    0.01563    0.01563    0.01563
                         0.01563    0.01563    0.01563    0.01563    0.01563    0.01563
                         0.01563    0.01563    0.01563    0.01563    0.01563    0.01563
                         0.01563    0.01563    0.01563    0.01563    0.01563    0.01563
                         0.01563    0.01563    0.01563    0.01563    0.01563    0.01563
                         0.01563    0.01563
                       outvars : Printing only first  50 k-points.
           xangst      2.0538509643E+00  0.0000000000E+00  4.6664781898E+00
                       0.0000000000E+00  2.0538509643E+00  7.4161065825E+00
                       2.0538509643E+00  0.0000000000E+00  1.0102193440E+01
                       0.0000000000E+00  2.0538509643E+00  1.2851821833E+01
                       2.0538509643E+00  0.0000000000E+00  1.5537928927E+01
                       0.0000000000E+00  2.0538509643E+00  4.6982287211E+00
                       2.0538509643E+00  0.0000000000E+00  7.3843358150E+00
                       0.0000000000E+00  2.0538509643E+00  1.0133964208E+01
                       2.0538509643E+00  0.0000000000E+00  1.2820051065E+01
                       0.0000000000E+00  2.0538509643E+00  1.5569699694E+01
            xcart      3.8812158402E+00  0.0000000000E+00  8.8183657837E+00
                       0.0000000000E+00  3.8812158402E+00  1.4014410413E+01
                       3.8812158402E+00  0.0000000000E+00  1.9090378943E+01
                       0.0000000000E+00  3.8812158402E+00  2.4286423573E+01
                       3.8812158402E+00  0.0000000000E+00  2.9362430344E+01
                       0.0000000000E+00  3.8812158402E+00  8.8783655925E+00
                       3.8812158402E+00  0.0000000000E+00  1.3954372364E+01
                       0.0000000000E+00  3.8812158402E+00  1.9150416993E+01
                       3.8812158402E+00  0.0000000000E+00  2.4226385523E+01
                       0.0000000000E+00  3.8812158402E+00  2.9422468393E+01
             xred      5.0000000000E-01  0.0000000000E+00  2.3060100000E-01
                       0.0000000000E+00  5.0000000000E-01  3.6647800000E-01
                       5.0000000000E-01  0.0000000000E+00  4.9921500000E-01
                       0.0000000000E+00  5.0000000000E-01  6.3509200000E-01
                       5.0000000000E-01  0.0000000000E+00  7.6783000000E-01
                       0.0000000000E+00  5.0000000000E-01  2.3217000000E-01
                       5.0000000000E-01  0.0000000000E+00  3.6490800000E-01
                       0.0000000000E+00  5.0000000000E-01  5.0078500000E-01
                       5.0000000000E-01  0.0000000000E+00  6.3352200000E-01
                       0.0000000000E+00  5.0000000000E-01  7.6940000000E-01
            znucl       50.00000   34.00000

================================================================================

 chkinp: Checking input parameters for consistency, jdtset=   1.

 chkinp: Checking input parameters for consistency, jdtset=   2.

 chkinp: Checking input parameters for consistency, jdtset=   3.

 chkinp: Checking input parameters for consistency, jdtset=   4.

 chkinp: Checking input parameters for consistency, jdtset=   5.

 chkinp: Checking input parameters for consistency, jdtset=   6.

================================================================================
== DATASET  1 ==================================================================
-   mpi_nproc: 6, omp_nthreads: -1 (-1 if OMP is not activated)


--- !DatasetInfo
iteration_state: {dtset: 1, }
dimensions: {natom: 10, nkpt: 10, mband: 77, nsppol: 1, nspinor: 1, nspden: 1, mpw: 11783, }
cutoff_energies: {ecut:  22.5, pawecutdg:  -1.0, }
electrons: {nelect:   1.50000000E+02, charge:   0.00000000E+00, occopt:   1.00000000E+00, tsmear:   1.00000000E-02, }
meta: {optdriver: 0, ionmov: 0, optcell: 0, iscf: 7, paral_kgb: 0, }
...

 Exchange-correlation functional for the present dataset will be:
  GGA: Perdew-Burke-Ernzerhof functional - ixc=11
 Citation for XC functional:
  J.P.Perdew, K.Burke, M.Ernzerhof, PRL 77, 3865 (1996)

 Real(R)+Recip(G) space primitive vectors, cartesian coordinates (Bohr,Bohr^-1):
 R(1)=  7.7624317  0.0000000  0.0000000  G(1)=  0.1288256  0.0000000  0.0000000
 R(2)=  0.0000000  7.7624317  0.0000000  G(2)=  0.0000000  0.1288256  0.0000000
 R(3)=  0.0000000  0.0000000 38.2407959  G(3)=  0.0000000  0.0000000  0.0261501
 Unit cell volume ucvol=  2.3042124E+03 bohr^3
 Angles (23,13,12)=  9.00000000E+01  9.00000000E+01  9.00000000E+01 degrees

 getcut: wavevector=  0.0000  0.0000  0.0000  ngfft=  36  36 180
         ecut(hartree)=     22.500   => boxcut(ratio)=   2.17194

--- Pseudopotential description ------------------------------------------------
- pspini: atom type   1  psp file is ../../../Psps_for_tests/ATOMICDATA_NC/Sn.psp8
- pspatm: opening atomic psp file    ../../../Psps_for_tests/ATOMICDATA_NC/Sn.psp8
- Sn    ONCVPSP  r_core=  2.27  2.62  1.86
- 50.00000  14.00000    150810                znucl, zion, pspdat
    8   11    2    4       600   0.00000      pspcod,pspxc,lmax,lloc,mmax,r2well
    5.99000000000000    6.50000000000000    0.00000000000000   rchrg,fchrg,qchrg
     nproj     2     2     2
     extension_switch     1
  pspatm : epsatm=   32.65190642
         --- l  ekb(1:nproj) -->
             0    5.462393    0.682281
             1    4.443814    0.825686
             2   -5.382195   -1.704077
 pspatm: atomic psp has been read  and splines computed

- pspini: atom type   2  psp file is ../../../Psps_for_tests/ATOMICDATA_NC/Se.psp8
- pspatm: opening atomic psp file    ../../../Psps_for_tests/ATOMICDATA_NC/Se.psp8
- Se    ONCVPSP  r_core=  1.82  1.50  1.91
- 34.00000  16.00000    150729                znucl, zion, pspdat
    8   11    2    4       600   0.00000      pspcod,pspxc,lmax,lloc,mmax,r2well
    5.99000000000000    5.00000000000000    0.00000000000000   rchrg,fchrg,qchrg
     nproj     2     2     2
     extension_switch     1
  pspatm : epsatm=   29.53325930
         --- l  ekb(1:nproj) -->
             0    8.612261    0.939919
             1    6.984962    1.281898
             2   -9.322521   -3.856218
 pspatm: atomic psp has been read  and splines computed

   4.66388743E+04                                ecore*ucvol(ha*bohr**3)
--------------------------------------------------------------------------------

_setup2: Arith. and geom. avg. npw (full set) are   11745.125   11745.117

================================================================================

--- !BeginCycle
iteration_state: {dtset: 1, }
solver: {iscf: 7, nstep: 400, nline: 4, wfoptalg: 0, }
tolerances: {tolwfr: 1.00E-20, }
...

     iter   Etot(hartree)      deltaE(h)  residm     vres2
 ETOT  1  -972.32646052744    -9.723E+02 8.928E-01 1.227E+05
 ETOT  2  -992.97238061582    -2.065E+01 5.961E-02 6.684E+04
 ETOT  3  -994.52962122524    -1.557E+00 1.360E-02 5.584E+03
 ETOT  4  -994.60987695742    -8.026E-02 6.105E-03 6.721E+03
 ETOT  5  -994.66485804248    -5.498E-02 2.548E-03 2.220E+03
 ETOT  6  -994.67348798870    -8.630E-03 1.305E-03 2.141E+03
 ETOT  7  -994.68199053362    -8.503E-03 1.211E-03 1.330E+03
 ETOT  8  -994.68672246420    -4.732E-03 1.556E-03 1.005E+03
 ETOT  9  -994.68996421658    -3.242E-03 8.581E-04 6.568E+02
 ETOT 10  -994.69525298766    -5.289E-03 9.398E-04 1.564E+02
 ETOT 11  -994.69564143449    -3.884E-04 2.723E-04 1.018E+02
 ETOT 12  -994.69563011309     1.132E-05 1.830E-04 9.659E+01
 ETOT 13  -994.69604584609    -4.157E-04 7.134E-05 3.856E+01
 ETOT 14  -994.69617788951    -1.320E-04 4.084E-05 6.893E+00
 ETOT 15  -994.69619051821    -1.263E-05 1.668E-05 5.663E+00
 ETOT 16  -994.69619644788    -5.930E-06 2.869E-05 9.896E-01
 ETOT 17  -994.69619948394    -3.036E-06 1.851E-05 1.443E+00
 ETOT 18  -994.69620681627    -7.332E-06 3.197E-05 1.249E-01
 ETOT 19  -994.69620713984    -3.236E-07 2.058E-05 5.104E-02
 ETOT 20  -994.69620716961    -2.977E-08 3.588E-05 2.433E-02
 ETOT 21  -994.69620729979    -1.302E-07 2.268E-05 2.323E-03
 ETOT 22  -994.69620731559    -1.580E-08 3.876E-05 4.669E-04
 ETOT 23  -994.69620732097    -5.380E-09 2.400E-05 6.900E-06
 ETOT 24  -994.69620732108    -1.094E-10 4.025E-05 3.386E-06
 ETOT 25  -994.69620732117    -8.583E-11 2.444E-05 1.769E-07
 ETOT 26  -994.69620732134    -1.700E-10 4.023E-05 1.054E-07
 ETOT 27  -994.69620732110     2.340E-10 2.393E-05 3.118E-08
 ETOT 28  -994.69620732122    -1.149E-10 3.869E-05 1.365E-08
 ETOT 29  -994.69620732128    -5.616E-11 2.256E-05 8.399E-10
 ETOT 30  -994.69620732111     1.692E-10 3.583E-05 2.445E-10
 ETOT 31  -994.69620732113    -2.092E-11 2.051E-05 2.289E-10
 ETOT 32  -994.69620732126    -1.344E-10 3.204E-05 6.474E-11
 ETOT 33  -994.69620732120     6.128E-11 1.803E-05 6.860E-12
 ETOT 34  -994.69620732134    -1.349E-10 2.775E-05 2.664E-12
 ETOT 35  -994.69620732124     9.982E-11 1.538E-05 1.832E-14
 ETOT 36  -994.69620732115     8.822E-11 2.337E-05 1.885E-14
 ETOT 37  -994.69620732107     8.254E-11 1.279E-05 4.527E-15
 ETOT 38  -994.69620732110    -3.706E-11 1.921E-05 2.590E-15
 ETOT 39  -994.69620732105     5.480E-11 1.041E-05 6.454E-16
 ETOT 40  -994.69620732107    -2.353E-11 1.548E-05 1.786E-16
 ETOT 41  -994.69620732106     6.935E-12 8.316E-06 7.861E-17
 ETOT 42  -994.69620732106     6.594E-12 1.226E-05 3.512E-17
 ETOT 43  -994.69620732106     2.046E-12 6.547E-06 1.924E-17
 ETOT 44  -994.69620732105     9.095E-13 9.588E-06 1.175E-17
 ETOT 45  -994.69620732105     1.592E-12 5.093E-06 1.290E-17
 ETOT 46  -994.69620732105     6.821E-13 7.415E-06 1.078E-17
 ETOT 47  -994.69620732106    -6.366E-12 3.925E-06 9.804E-18
 ETOT 48  -994.69620732107    -1.023E-11 5.686E-06 9.084E-18
 ETOT 49  -994.69620732107     2.274E-12 3.002E-06 8.026E-18
 ETOT 50  -994.69620732107    -2.615E-12 4.331E-06 6.646E-18
 ETOT 51  -994.69620732107     3.411E-13 2.283E-06 5.919E-18
 ETOT 52  -994.69620732106     8.299E-12 3.282E-06 6.279E-18
 ETOT 53  -994.69620732106     0.000E+00 1.728E-06 5.170E-18
 ETOT 54  -994.69620732107    -5.343E-12 2.477E-06 6.652E-18
 ETOT 55  -994.69620732106     2.501E-12 1.304E-06 4.970E-18
 ETOT 56  -994.69620732106    -3.411E-13 1.864E-06 5.180E-18
 ETOT 57  -994.69620732106     0.000E+00 9.810E-07 4.953E-18
 ETOT 58  -994.69620732106     7.958E-13 1.399E-06 4.857E-18
 ETOT 59  -994.69620732106     3.183E-12 7.366E-07 4.914E-18
 ETOT 60  -994.69620732106     2.274E-12 1.048E-06 5.531E-18
 ETOT 61  -994.69620732106     4.547E-13 5.522E-07 4.622E-18
 ETOT 62  -994.69620732105     2.501E-12 7.845E-07 4.260E-18
 ETOT 63  -994.69620732106    -3.638E-12 4.135E-07 4.468E-18
 ETOT 64  -994.69620732105     3.979E-12 5.864E-07 4.808E-18
 ETOT 65  -994.69620732105    -3.411E-13 3.094E-07 3.841E-18
 ETOT 66  -994.69620732105     9.095E-13 4.380E-07 3.752E-18
 ETOT 67  -994.69620732105     6.821E-13 2.313E-07 3.893E-18
 ETOT 68  -994.69620732105    -4.547E-13 3.270E-07 4.525E-18
 ETOT 69  -994.69620732105     6.821E-13 1.729E-07 3.930E-18
 ETOT 70  -994.69620732105    -6.821E-13 2.441E-07 3.902E-18
 ETOT 71  -994.69620732105    -1.137E-13 1.291E-07 3.844E-18
 ETOT 72  -994.69620732105    -1.137E-13 1.821E-07 4.487E-18
 ETOT 73  -994.69620732105     1.137E-13 9.645E-08 3.317E-18
 ETOT 74  -994.69620732105    -3.411E-13 1.358E-07 3.557E-18
 ETOT 75  -994.69620732106    -3.183E-12 7.202E-08 3.633E-18
 ETOT 76  -994.69620732105     1.819E-12 1.013E-07 3.232E-18
 ETOT 77  -994.69620732106    -2.842E-12 5.378E-08 3.596E-18
 ETOT 78  -994.69620732106     5.684E-13 7.559E-08 4.133E-18
 ETOT 79  -994.69620732106    -2.046E-12 4.016E-08 4.117E-18
 ETOT 80  -994.69620732106    -7.958E-13 5.638E-08 4.438E-18
 ETOT 81  -994.69620732106    -3.411E-13 2.999E-08 3.677E-18
 ETOT 82  -994.69620732106    -3.411E-13 4.206E-08 3.978E-18
 ETOT 83  -994.69620732106    -5.684E-13 2.239E-08 2.794E-18
 ETOT 84  -994.69620732106    -1.023E-12 3.138E-08 3.221E-18
 ETOT 85  -994.69620732106    -3.411E-13 1.672E-08 3.959E-18
 ETOT 86  -994.69620732106     3.411E-13 2.341E-08 3.554E-18
 ETOT 87  -994.69620732106    -3.411E-13 1.249E-08 4.116E-18
 ETOT 88  -994.69620732106    -1.137E-13 1.747E-08 3.457E-18
 ETOT 89  -994.69620732106    -7.958E-13 9.327E-09 3.330E-18
 ETOT 90  -994.69620732106    -1.137E-12 1.304E-08 3.385E-18
 ETOT 91  -994.69620732106     4.547E-13 6.967E-09 3.349E-18
 ETOT 92  -994.69620732106    -1.137E-13 9.731E-09 3.976E-18
 ETOT 93  -994.69620732106     1.137E-13 5.204E-09 3.134E-18
 ETOT 94  -994.69620732106     1.364E-12 7.264E-09 3.859E-18
 ETOT 95  -994.69620732106    -1.137E-13 3.888E-09 4.277E-18
 ETOT 96  -994.69620732106    -1.251E-12 5.423E-09 3.858E-18
 ETOT 97  -994.69620732106     7.958E-13 2.905E-09 3.367E-18
 ETOT 98  -994.69620732106     1.478E-12 4.049E-09 3.186E-18
 ETOT 99  -994.69620732106    -6.821E-13 2.171E-09 3.832E-18
 ETOT  100  -994.69620732106     7.958E-13 3.024E-09 3.545E-18
 ETOT  101  -994.69620732106     0.000E+00 1.622E-09 3.375E-18
 ETOT  102  -994.69620732106     5.684E-13 2.258E-09 4.796E-18
 ETOT  103  -994.69620732106     6.821E-13 1.213E-09 3.249E-18
 ETOT  104  -994.69620732106     9.095E-13 1.687E-09 4.380E-18
 ETOT  105  -994.69620732106    -5.684E-13 9.065E-10 2.993E-18
 ETOT  106  -994.69620732106     1.364E-12 1.260E-09 3.948E-18
 ETOT  107  -994.69620732106    -1.023E-12 6.776E-10 3.581E-18
 ETOT  108  -994.69620732106    -1.819E-12 9.415E-10 3.740E-18
 ETOT  109  -994.69620732106     9.095E-13 5.066E-10 2.601E-18
 ETOT  110  -994.69620732106     6.821E-13 7.035E-10 4.005E-18
 ETOT  111  -994.69620732106    -9.095E-13 3.788E-10 3.210E-18
 ETOT  112  -994.69620732106     3.411E-13 5.257E-10 3.788E-18
 ETOT  113  -994.69620732106     1.137E-13 2.833E-10 3.841E-18
 ETOT  114  -994.69620732106    -4.547E-13 3.929E-10 3.482E-18
 ETOT  115  -994.69620732106     4.547E-13 2.118E-10 3.394E-18
 ETOT  116  -994.69620732106    -1.137E-13 2.937E-10 2.859E-18
 ETOT  117  -994.69620732106     1.364E-12 1.584E-10 2.832E-18
 ETOT  118  -994.69620732106    -1.478E-12 2.195E-10 2.957E-18
 ETOT  119  -994.69620732106    -4.547E-13 1.185E-10 2.985E-18
 ETOT  120  -994.69620732106     3.411E-13 1.641E-10 3.165E-18
 ETOT  121  -994.69620732106    -1.137E-13 8.864E-11 3.283E-18
 ETOT  122  -994.69620732106     1.819E-12 1.227E-10 3.331E-18
 ETOT  123  -994.69620732106    -2.046E-12 6.631E-11 2.858E-18
 ETOT  124  -994.69620732106     7.958E-13 9.176E-11 3.793E-18
 ETOT  125  -994.69620732106     2.274E-13 4.961E-11 3.117E-18
 ETOT  126  -994.69620732106    -1.251E-12 6.862E-11 3.126E-18
 ETOT  127  -994.69620732106    -2.274E-13 3.712E-11 3.834E-18
 ETOT  128  -994.69620732106     2.274E-13 5.132E-11 3.304E-18
 ETOT  129  -994.69620732106     0.000E+00 2.777E-11 3.624E-18
 ETOT  130  -994.69620732106     9.095E-13 3.838E-11 3.707E-18
 ETOT  131  -994.69620732106    -5.684E-13 2.078E-11 3.223E-18
 ETOT  132  -994.69620732106    -1.023E-12 2.871E-11 4.816E-18
 ETOT  133  -994.69620732106     1.137E-12 1.555E-11 3.683E-18
 ETOT  134  -994.69620732106     6.821E-13 2.148E-11 3.243E-18
 ETOT  135  -994.69620732106    -1.364E-12 1.164E-11 3.923E-18
 ETOT  136  -994.69620732106     2.274E-13 1.607E-11 3.367E-18
 ETOT  137  -994.69620732106    -2.274E-13 8.710E-12 3.046E-18
 ETOT  138  -994.69620732106     0.000E+00 1.202E-11 4.436E-18
 ETOT  139  -994.69620732106     6.821E-13 6.519E-12 3.512E-18
 ETOT  140  -994.69620732106    -9.095E-13 8.993E-12 3.991E-18
 ETOT  141  -994.69620732106     9.095E-13 4.879E-12 2.950E-18
 ETOT  142  -994.69620732106    -2.274E-13 6.729E-12 3.067E-18
 ETOT  143  -994.69620732106     2.274E-13 3.652E-12 4.284E-18
 ETOT  144  -994.69620732106     1.137E-13 5.035E-12 2.620E-18
 ETOT  145  -994.69620732106     0.000E+00 2.734E-12 3.053E-18
 ETOT  146  -994.69620732106    -3.411E-13 3.768E-12 4.103E-18
 ETOT  147  -994.69620732106     7.958E-13 2.047E-12 3.721E-18
 ETOT  148  -994.69620732106    -2.274E-13 2.820E-12 3.694E-18
 ETOT  149  -994.69620732106    -1.137E-13 1.532E-12 3.784E-18
 ETOT  150  -994.69620732106     1.137E-13 2.110E-12 2.936E-18
 ETOT  151  -994.69620732106     0.000E+00 1.147E-12 3.413E-18
 ETOT  152  -994.69620732106    -2.274E-13 1.579E-12 3.203E-18
 ETOT  153  -994.69620732106    -3.411E-13 8.588E-13 4.647E-18
 ETOT  154  -994.69620732106     4.547E-13 1.182E-12 3.300E-18
 ETOT  155  -994.69620732106    -5.684E-13 6.430E-13 3.004E-18
 ETOT  156  -994.69620732106    -5.684E-13 8.847E-13 3.072E-18
 ETOT  157  -994.69620732106     1.819E-12 4.815E-13 2.982E-18
 ETOT  158  -994.69620732106    -1.023E-12 6.622E-13 3.135E-18
 ETOT  159  -994.69620732106    -5.684E-13 3.605E-13 3.592E-18
 ETOT  160  -994.69620732106     4.547E-13 4.957E-13 2.936E-18
 ETOT  161  -994.69620732106     2.274E-13 2.699E-13 3.063E-18
 ETOT  162  -994.69620732106     6.821E-13 3.711E-13 2.602E-18
 ETOT  163  -994.69620732106    -5.684E-13 2.021E-13 3.186E-18
 ETOT  164  -994.69620732106    -2.274E-13 2.778E-13 3.334E-18
 ETOT  165  -994.69620732106     5.684E-13 1.514E-13 2.637E-18
 ETOT  166  -994.69620732106    -1.364E-12 2.080E-13 3.011E-18
 ETOT  167  -994.69620732106     2.274E-13 1.134E-13 4.773E-18
 ETOT  168  -994.69620732106     6.821E-13 1.557E-13 2.978E-18
 ETOT  169  -994.69620732106     1.251E-12 8.489E-14 3.474E-18
 ETOT  170  -994.69620732106    -1.137E-12 1.166E-13 4.152E-18
 ETOT  171  -994.69620732106    -1.137E-13 6.357E-14 2.956E-18
 ETOT  172  -994.69620732106     6.821E-13 8.728E-14 2.806E-18
 ETOT  173  -994.69620732106    -6.821E-13 4.761E-14 3.374E-18
 ETOT  174  -994.69620732106     2.274E-13 6.535E-14 3.899E-18
 ETOT  175  -994.69620732106    -9.095E-13 3.566E-14 3.526E-18
 ETOT  176  -994.69620732106     0.000E+00 4.893E-14 3.259E-18
 ETOT  177  -994.69620732106     4.547E-13 2.671E-14 3.055E-18
 ETOT  178  -994.69620732106     1.023E-12 3.664E-14 4.225E-18
 ETOT  179  -994.69620732106    -1.137E-12 2.000E-14 3.460E-18
 ETOT  180  -994.69620732106     1.137E-13 2.744E-14 3.791E-18
 ETOT  181  -994.69620732106    -1.023E-12 1.498E-14 4.184E-18
 ETOT  182  -994.69620732106     1.933E-12 2.054E-14 3.232E-18
 ETOT  183  -994.69620732106    -1.364E-12 1.122E-14 2.918E-18
 ETOT  184  -994.69620732106     1.251E-12 1.538E-14 2.618E-18
 ETOT  185  -994.69620732106    -7.958E-13 8.405E-15 3.158E-18
 ETOT  186  -994.69620732106    -3.411E-13 1.152E-14 2.920E-18
 ETOT  187  -994.69620732106     5.684E-13 6.296E-15 4.023E-18
 ETOT  188  -994.69620732106    -2.274E-13 8.627E-15 3.564E-18
 ETOT  189  -994.69620732106    -9.095E-13 4.716E-15 3.025E-18
 ETOT  190  -994.69620732106     1.251E-12 6.461E-15 3.907E-18
 ETOT  191  -994.69620732106     1.137E-13 3.532E-15 3.214E-18
 ETOT  192  -994.69620732106     1.137E-12 4.839E-15 3.863E-18
 ETOT  193  -994.69620732106    -9.095E-13 2.646E-15 3.699E-18
 ETOT  194  -994.69620732106     6.821E-13 3.624E-15 3.150E-18
 ETOT  195  -994.69620732106     0.000E+00 1.982E-15 3.299E-18
 ETOT  196  -994.69620732106    -1.819E-12 2.714E-15 3.116E-18
 ETOT  197  -994.69620732106     1.364E-12 1.485E-15 3.476E-18
 ETOT  198  -994.69620732106    -1.364E-12 2.033E-15 3.345E-18
 ETOT  199  -994.69620732106     6.821E-13 1.112E-15 3.297E-18
 ETOT  200  -994.69620732106    -5.684E-13 1.522E-15 2.952E-18
 ETOT  201  -994.69620732106     3.411E-13 8.332E-16 3.288E-18
 ETOT  202  -994.69620732106     3.411E-13 1.140E-15 3.390E-18
 ETOT  203  -994.69620732106    -2.274E-13 6.242E-16 3.959E-18
 ETOT  204  -994.69620732106     3.411E-13 8.540E-16 2.664E-18
 ETOT  205  -994.69620732106    -1.023E-12 4.676E-16 3.429E-18
 ETOT  206  -994.69620732106     2.842E-12 6.396E-16 3.442E-18
 ETOT  207  -994.69620732106    -1.364E-12 3.503E-16 3.755E-18
 ETOT  208  -994.69620732106    -1.137E-13 4.791E-16 2.829E-18
 ETOT  209  -994.69620732106    -1.364E-12 2.624E-16 3.249E-18
 ETOT  210  -994.69620732106     1.251E-12 3.589E-16 2.833E-18
 ETOT  211  -994.69620732106    -2.274E-13 1.966E-16 3.172E-18
 ETOT  212  -994.69620732106     9.095E-13 2.688E-16 2.625E-18
 ETOT  213  -994.69620732106    -5.684E-13 1.473E-16 2.832E-18
 ETOT  214  -994.69620732106     1.137E-13 2.013E-16 2.000E-18
 ETOT  215  -994.69620732106    -9.095E-13 1.103E-16 3.701E-18
 ETOT  216  -994.69620732106     1.251E-12 1.508E-16 3.137E-18
 ETOT  217  -994.69620732106    -1.819E-12 8.267E-17 3.584E-18
 ETOT  218  -994.69620732106     1.478E-12 1.130E-16 3.266E-18
 ETOT  219  -994.69620732106    -3.411E-13 6.194E-17 2.602E-18
 ETOT  220  -994.69620732106     0.000E+00 8.462E-17 3.187E-18
 ETOT  221  -994.69620732106     3.411E-13 4.640E-17 3.307E-18
 ETOT  222  -994.69620732106    -2.274E-13 6.339E-17 3.596E-18
 ETOT  223  -994.69620732106     1.364E-12 3.477E-17 3.778E-18
 ETOT  224  -994.69620732106    -1.023E-12 4.748E-17 4.125E-18
 ETOT  225  -994.69620732106    -1.137E-13 2.605E-17 2.704E-18
 ETOT  226  -994.69620732106     6.821E-13 3.557E-17 3.112E-18
 ETOT  227  -994.69620732106     4.547E-13 1.952E-17 4.220E-18
 ETOT  228  -994.69620732106    -1.819E-12 2.665E-17 3.418E-18
 ETOT  229  -994.69620732106     1.137E-13 1.462E-17 2.612E-18
 ETOT  230  -994.69620732106     1.137E-13 1.996E-17 3.944E-18
 ETOT  231  -994.69620732106    -2.274E-13 1.096E-17 2.920E-18
 ETOT  232  -994.69620732106     6.821E-13 1.495E-17 3.123E-18
 ETOT  233  -994.69620732106    -1.023E-12 8.208E-18 3.049E-18
 ETOT  234  -994.69620732106     2.387E-12 1.120E-17 2.506E-18
 ETOT  235  -994.69620732106    -4.547E-13 6.150E-18 3.480E-18
 ETOT  236  -994.69620732106    -1.364E-12 8.391E-18 3.247E-18
 ETOT  237  -994.69620732106     1.137E-12 4.608E-18 3.567E-18
 ETOT  238  -994.69620732106    -2.274E-13 6.286E-18 3.248E-18
 ETOT  239  -994.69620732106     2.274E-13 3.452E-18 3.108E-18
 ETOT  240  -994.69620732106    -5.684E-13 4.709E-18 3.003E-18
 ETOT  241  -994.69620732106    -4.547E-13 2.587E-18 3.510E-18
 ETOT  242  -994.69620732106     7.958E-13 3.528E-18 3.218E-18
 ETOT  243  -994.69620732106    -1.592E-12 1.938E-18 4.703E-18
 ETOT  244  -994.69620732106     1.251E-12 2.643E-18 2.390E-18
 ETOT  245  -994.69620732106     3.411E-13 1.452E-18 2.463E-18
 ETOT  246  -994.69620732106    -1.364E-12 1.980E-18 3.404E-18
 ETOT  247  -994.69620732106    -3.411E-13 1.088E-18 3.346E-18
 ETOT  248  -994.69620732106     1.705E-12 1.483E-18 3.281E-18
 ETOT  249  -994.69620732106    -1.251E-12 8.153E-19 3.901E-18
 ETOT  250  -994.69620732106    -5.684E-13 1.111E-18 3.722E-18
 ETOT  251  -994.69620732106     2.274E-13 6.109E-19 3.004E-18
 ETOT  252  -994.69620732106     4.547E-13 8.326E-19 3.833E-18
 ETOT  253  -994.69620732106     7.958E-13 4.577E-19 3.614E-18
 ETOT  254  -994.69620732106    -1.251E-12 6.238E-19 3.722E-18
 ETOT  255  -994.69620732106     6.821E-13 3.430E-19 3.447E-18
 ETOT  256  -994.69620732106    -6.821E-13 4.673E-19 2.615E-18
 ETOT  257  -994.69620732106     1.137E-12 2.570E-19 3.244E-18
 ETOT  258  -994.69620732106     1.137E-13 3.501E-19 3.627E-18
 ETOT  259  -994.69620732106    -1.137E-13 1.926E-19 2.975E-18
 ETOT  260  -994.69620732106    -1.478E-12 2.623E-19 3.367E-18
 ETOT  261  -994.69620732106     1.364E-12 1.443E-19 3.378E-18
 ETOT  262  -994.69620732106    -1.023E-12 1.965E-19 2.874E-18
 ETOT  263  -994.69620732106    -6.821E-13 1.081E-19 3.237E-18
 ETOT  264  -994.69620732106     1.705E-12 1.472E-19 2.716E-18
 ETOT  265  -994.69620732106    -3.411E-13 8.102E-20 3.510E-18
 ETOT  266  -994.69620732106     1.137E-13 1.103E-19 3.747E-18
 ETOT  267  -994.69620732106     1.592E-12 6.071E-20 3.880E-18
 ETOT  268  -994.69620732106    -1.364E-12 8.264E-20 2.940E-18
 ETOT  269  -994.69620732106    -1.023E-12 4.549E-20 2.693E-18
 ETOT  270  -994.69620732106     1.478E-12 6.192E-20 3.541E-18
 ETOT  271  -994.69620732106    -1.137E-13 3.409E-20 4.511E-18
 ETOT  272  -994.69620732106    -4.547E-13 4.639E-20 3.653E-18
 ETOT  273  -994.69620732106     1.137E-12 2.554E-20 2.593E-18
 ETOT  274  -994.69620732106     0.000E+00 3.476E-20 4.377E-18
 ETOT  275  -994.69620732106    -7.958E-13 1.914E-20 3.271E-18
 ETOT  276  -994.69620732106    -1.137E-13 2.604E-20 3.007E-18
 ETOT  277  -994.69620732106    -2.274E-13 1.434E-20 3.855E-18
 ETOT  278  -994.69620732106    -1.137E-12 1.951E-20 3.591E-18
 ETOT  279  -994.69620732106     1.364E-12 1.075E-20 2.892E-18
 ETOT  280  -994.69620732106     2.274E-13 9.816E-21 3.461E-18

 At SCF step  280   max residual=  9.82E-21 < tolwfr=  1.00E-20 =>converged.

 Cartesian components of stress tensor (hartree/bohr^3)
  sigma(1 1)=  1.24220426E-02  sigma(3 2)=  0.00000000E+00
  sigma(2 2)=  1.24220426E-02  sigma(3 1)=  0.00000000E+00
  sigma(3 3)=  1.22200696E-02  sigma(2 1)=  0.00000000E+00


--- !ResultsGS
iteration_state: {dtset: 1, }
comment   : Summary of ground state results
lattice_vectors:
- [  7.7624317,   0.0000000,   0.0000000, ]
- [  0.0000000,   7.7624317,   0.0000000, ]
- [  0.0000000,   0.0000000,  38.2407959, ]
lattice_lengths: [   7.76243,    7.76243,   38.24080, ]
lattice_angles: [ 90.000,  90.000,  90.000, ] # degrees, (23, 13, 12)
lattice_volume:   2.3042124E+03
convergence: {deltae:  2.274E-13, res2:  3.461E-18, residm:  9.816E-21, diffor: null, }
etotal    :  -9.94696207E+02
entropy   :   0.00000000E+00
fermie    :   1.25189849E-01
cartesian_stress_tensor: # hartree/bohr^3
- [  1.24220426E-02,   0.00000000E+00,   0.00000000E+00, ]
- [  0.00000000E+00,   1.24220426E-02,   0.00000000E+00, ]
- [  0.00000000E+00,   0.00000000E+00,   1.22200696E-02, ]
pressure_GPa:  -3.6349E+02
xred      :
- [  5.0000E-01,   0.0000E+00,   2.3060E-01, Sn]
- [  0.0000E+00,   5.0000E-01,   3.6648E-01, Sn]
- [  5.0000E-01,   0.0000E+00,   4.9922E-01, Sn]
- [  0.0000E+00,   5.0000E-01,   6.3509E-01, Sn]
- [  5.0000E-01,   0.0000E+00,   7.6783E-01, Sn]
- [  0.0000E+00,   5.0000E-01,   2.3217E-01, Se]
- [  5.0000E-01,   0.0000E+00,   3.6491E-01, Se]
- [  0.0000E+00,   5.0000E-01,   5.0079E-01, Se]
- [  5.0000E-01,   0.0000E+00,   6.3352E-01, Se]
- [  0.0000E+00,   5.0000E-01,   7.6940E-01, Se]
cartesian_forces: # hartree/bohr
- [ -0.00000000E+00,  -0.00000000E+00,  -1.35378362E-02, ]
- [ -0.00000000E+00,  -0.00000000E+00,  -1.21994615E-02, ]
- [ -0.00000000E+00,  -0.00000000E+00,   8.38861075E-04, ]
- [ -0.00000000E+00,  -0.00000000E+00,   9.77574272E-03, ]
- [ -0.00000000E+00,  -0.00000000E+00,   1.46193243E-02, ]
- [ -0.00000000E+00,  -0.00000000E+00,  -1.49170757E-02, ]
- [ -0.00000000E+00,  -0.00000000E+00,  -7.73856485E-03, ]
- [ -0.00000000E+00,  -0.00000000E+00,  -1.41703762E-03, ]
- [ -0.00000000E+00,  -0.00000000E+00,   1.11508915E-02, ]
- [ -0.00000000E+00,  -0.00000000E+00,   1.34251561E-02, ]
force_length_stats: {min:   8.38861075E-04, max:   1.49170757E-02, mean:   9.96199515E-03, }
...

 Integrated electronic density in atomic spheres:
 ------------------------------------------------
 Atom  Sphere_radius  Integrated_density
    1        2.00000         10.54840721
    2        2.00000         10.57421035
    3        2.00000         10.56824351
    4        2.00000         10.57191549
    5        2.00000         10.55558192
    6        2.00000         13.29941057
    7        2.00000         13.30727302
    8        2.00000         13.31896149
    9        2.00000         13.30920485
   10        2.00000         13.29253627
================================================================================

 ----iterations are completed or convergence reached----

 Mean square residual over all n,k,spin=   33.563E-22; max=  98.157E-22
 reduced coordinates (array xred) for   10 atoms
       0.500000000000      0.000000000000      0.230601000000
       0.000000000000      0.500000000000      0.366478000000
       0.500000000000      0.000000000000      0.499215000000
       0.000000000000      0.500000000000      0.635092000000
       0.500000000000      0.000000000000      0.767830000000
       0.000000000000      0.500000000000      0.232170000000
       0.500000000000      0.000000000000      0.364908000000
       0.000000000000      0.500000000000      0.500785000000
       0.500000000000      0.000000000000      0.633522000000
       0.000000000000      0.500000000000      0.769400000000
 rms dE/dt=  2.4497E-01; max dE/dt=  5.6949E-01; dE/dt below (all hartree)
    1       0.000000000000      0.000000000000      0.516751461492
    2       0.000000000000      0.000000000000      0.465570947257
    3       0.000000000000      0.000000000000     -0.033024883827
    4       0.000000000000      0.000000000000     -0.374778351274
    5       0.000000000000      0.000000000000     -0.560000767164
    6       0.000000000000      0.000000000000      0.569494677986
    7       0.000000000000      0.000000000000      0.294982710492
    8       0.000000000000      0.000000000000      0.053242477829
    9       0.000000000000      0.000000000000     -0.427365135004
   10       0.000000000000      0.000000000000     -0.514334824214

 cartesian coordinates (angstrom) at end:
    1      2.05385096425820     0.00000000000000     4.66647818975039
    2      0.00000000000000     2.05385096425820     7.41610658246644
    3      2.05385096425820     0.00000000000000    10.10219344016827
    4      0.00000000000000     2.05385096425820    12.85182183288432
    5      2.05385096425820     0.00000000000000    15.53792892674379
    6      0.00000000000000     2.05385096425820     4.69822872109986
    7      2.05385096425820     0.00000000000000     7.38433581495933
    8      0.00000000000000     2.05385096425820    10.13396420767538
    9      2.05385096425820     0.00000000000000    12.82005106537721
   10      0.00000000000000     2.05385096425820    15.56969969425090

 cartesian forces (hartree/bohr) at end:
    1     -0.00000000000000    -0.00000000000000    -0.01353783616315
    2     -0.00000000000000    -0.00000000000000    -0.01219946145151
    3     -0.00000000000000    -0.00000000000000     0.00083886107492
    4     -0.00000000000000    -0.00000000000000     0.00977574272391
    5     -0.00000000000000    -0.00000000000000     0.01461932433237
    6     -0.00000000000000    -0.00000000000000    -0.01491707566909
    7     -0.00000000000000    -0.00000000000000    -0.00773856484649
    8     -0.00000000000000    -0.00000000000000    -0.00141703762030
    9     -0.00000000000000    -0.00000000000000     0.01115089150006
   10     -0.00000000000000    -0.00000000000000     0.01342515611928
 frms,max,avg= 6.4059427E-03 1.4917076E-02   0.000E+00  0.000E+00  2.474E-05 h/b

 cartesian forces (eV/Angstrom) at end:
    1     -0.00000000000000    -0.00000000000000    -0.69614346666755
    2     -0.00000000000000    -0.00000000000000    -0.62732147767049
    3     -0.00000000000000    -0.00000000000000     0.04313596720381
    4     -0.00000000000000    -0.00000000000000     0.50268886009973
    5     -0.00000000000000    -0.00000000000000     0.75175581964673
    6     -0.00000000000000    -0.00000000000000    -0.76706680769912
    7     -0.00000000000000    -0.00000000000000    -0.39793297055330
    8     -0.00000000000000    -0.00000000000000    -0.07286699805673
    9     -0.00000000000000    -0.00000000000000     0.57340184736559
   10     -0.00000000000000    -0.00000000000000     0.69034922633134
 frms,max,avg= 3.2940679E-01 7.6706681E-01   0.000E+00  0.000E+00  1.272E-03 e/A
 length scales=  7.762431680422  7.762431680422  7.762431680422 bohr
              =  4.107701928516  4.107701928516  4.107701928516 angstroms
 prteigrs : about to open file Cs2TiI6o_DS1_EIG
 Fermi (or HOMO) energy (hartree) =   0.12519   Average Vxc (hartree)=  -0.29499
 Eigenvalues (hartree) for nkpt=  10  k points:
 kpt#   1, nband= 77, wtk=  0.06250, kpt=  0.0625  0.0625  0.2500 (reduced coord)
  -1.69919   -1.69905   -1.69770   -1.69724   -1.69579   -1.69560   -1.69428   -1.69410
  -1.69328   -1.69319   -1.69185   -1.68966   -1.68949   -1.68639   -1.68605   -1.67289
  -1.67174   -1.67157   -1.67049   -1.66983   -1.66887   -1.66818   -1.66754   -1.66656
  -1.66643   -0.69467   -0.69283   -0.69282   -0.69213   -0.69206   -0.68549   -0.68518
  -0.68390   -0.68358   -0.68343   -0.68342   -0.68336   -0.68324   -0.68319   -0.68304
  -0.68300   -0.68285   -0.68267   -0.68260   -0.68252   -0.68236   -0.68143   -0.68129
  -0.68093   -0.68092   -0.44365   -0.42761   -0.40455   -0.38084   -0.37408   -0.15865
  -0.15539   -0.12707   -0.11751   -0.08519   -0.07644   -0.05599   -0.04186   -0.03730
  -0.02102   -0.01787   -0.01394    0.00217    0.00939    0.01594    0.01887    0.03540
   0.03755    0.06028    0.09003    0.17593    0.20094
 prteigrs : prtvol=0 or 1, do not print more k-points.


--- !EnergyTerms
iteration_state     : {dtset: 1, }
comment             : Components of total free energy in Hartree
kinetic             :  6.07890525578659E+02
hartree             :  1.08447160615249E+03
xc                  : -2.29326000928659E+02
Ewald energy        :  2.76339246573746E+02
psp_core            :  2.02407012489299E+01
local_psp           : -2.39572664676433E+03
non_local_psp       : -3.58454551468393E+02
VdWaals_dft_d       : -1.31087713501049E-01
total_energy        : -9.94696207321060E+02
total_energy_eV     : -2.70670603214995E+04
band_energy         : -1.23785599760015E+02
...


 Cartesian components of stress tensor (hartree/bohr^3)
  sigma(1 1)=  1.24220426E-02  sigma(3 2)=  0.00000000E+00
  sigma(2 2)=  1.24220426E-02  sigma(3 1)=  0.00000000E+00
  sigma(3 3)=  1.22200696E-02  sigma(2 1)=  0.00000000E+00

-Cartesian components of stress tensor (GPa)         [Pressure= -3.6349E+02 GPa]
- sigma(1 1)=  3.65469049E+02  sigma(3 2)=  0.00000000E+00
- sigma(2 2)=  3.65469049E+02  sigma(3 1)=  0.00000000E+00
- sigma(3 3)=  3.59526800E+02  sigma(2 1)=  0.00000000E+00

================================================================================
== DATASET  2 ==================================================================
-   mpi_nproc: 6, omp_nthreads: -1 (-1 if OMP is not activated)


--- !DatasetInfo
iteration_state: {dtset: 2, }
dimensions: {natom: 10, nkpt: 10, mband: 180, nsppol: 1, nspinor: 1, nspden: 1, mpw: 11783, }
cutoff_energies: {ecut:  22.5, pawecutdg:  -1.0, }
electrons: {nelect:   1.50000000E+02, charge:   0.00000000E+00, occopt:   1.00000000E+00, tsmear:   1.00000000E-02, }
meta: {optdriver: 0, ionmov: 0, optcell: 0, iscf: -2, paral_kgb: 0, }
...

 mkfilename : getwfk/=0, take file _WFK from output of DATASET   1.

 mkfilename : getden/=0, take file _DEN from output of DATASET   1.

 Exchange-correlation functional for the present dataset will be:
  GGA: Perdew-Burke-Ernzerhof functional - ixc=11
 Citation for XC functional:
  J.P.Perdew, K.Burke, M.Ernzerhof, PRL 77, 3865 (1996)

 Real(R)+Recip(G) space primitive vectors, cartesian coordinates (Bohr,Bohr^-1):
 R(1)=  7.7624317  0.0000000  0.0000000  G(1)=  0.1288256  0.0000000  0.0000000
 R(2)=  0.0000000  7.7624317  0.0000000  G(2)=  0.0000000  0.1288256  0.0000000
 R(3)=  0.0000000  0.0000000 38.2407959  G(3)=  0.0000000  0.0000000  0.0261501
 Unit cell volume ucvol=  2.3042124E+03 bohr^3
 Angles (23,13,12)=  9.00000000E+01  9.00000000E+01  9.00000000E+01 degrees

 getcut: wavevector=  0.0000  0.0000  0.0000  ngfft=  36  36 180
         ecut(hartree)=     22.500   => boxcut(ratio)=   2.17194
--------------------------------------------------------------------------------

-inwffil : will read wavefunctions from disk file Cs2TiI6o_DS1_WFK

================================================================================
 prteigrs : about to open file Cs2TiI6o_DS2_EIG
 Non-SCF case, kpt    1 (  0.06250  0.06250  0.25000), residuals and eigenvalues=
  4.71E-21  5.59E-21  6.20E-21  3.74E-21  3.45E-21  2.80E-21  4.28E-21  5.96E-21
  2.29E-21  5.93E-21  1.21E-21  2.62E-21  2.95E-21  6.06E-21  5.94E-21  8.41E-22
  4.53E-22  8.80E-22  3.92E-22  4.64E-22  3.92E-22  4.99E-22  4.88E-22  9.26E-22
  5.28E-22  3.11E-21  5.40E-22  5.05E-21  3.35E-21  4.30E-21  3.66E-21  3.84E-21
  6.21E-21  7.50E-21  1.00E-21  1.73E-21  1.94E-21  2.38E-21  2.60E-21  2.95E-21
  6.51E-22  5.91E-22  7.37E-21  7.36E-21  4.16E-22  3.01E-21  4.48E-22  8.64E-22
  6.10E-21  4.51E-21  6.19E-22  9.30E-22  1.25E-21  6.02E-22  2.00E-21  8.88E-22
  7.34E-22  2.45E-21  1.53E-21  1.76E-21  2.04E-21  5.83E-22  1.33E-21  1.06E-21
  1.13E-21  2.89E-21  2.35E-21  2.63E-21  2.92E-21  3.07E-21  2.09E-21  6.50E-21
  2.41E-21  2.84E-21  4.26E-21  7.22E-21  5.62E-21  6.09E-21  4.16E-21  4.15E-21
  6.50E-21  5.06E-21  6.12E-21  6.26E-21  4.23E-21  4.49E-21  2.56E-21  3.76E-21
  7.40E-21  4.91E-21  7.60E-21  9.43E-21  6.23E-21  3.72E-21  3.31E-21  3.37E-21
  6.22E-21  9.89E-21  2.00E-21  2.32E-21  3.55E-21  7.83E-21  5.15E-21  2.19E-21
  3.27E-21  4.13E-21  1.83E-21  3.05E-21  4.24E-21  3.71E-21  6.75E-21  8.91E-21
  4.88E-21  8.93E-21  4.78E-21  9.63E-21  9.48E-21  7.33E-21  6.76E-21  5.87E-21
  5.03E-21  3.55E-21  5.26E-21  3.32E-21  3.50E-21  9.86E-21  9.39E-21  7.74E-21
  5.50E-21  4.12E-21  6.10E-21  5.46E-21  4.04E-21  4.04E-21  9.58E-21  8.12E-21
  8.79E-21  6.17E-21  3.32E-21  6.84E-21  4.62E-21  5.65E-21  7.01E-21  4.77E-21
  9.79E-21  4.55E-21  3.58E-21  9.93E-21  7.54E-21  9.06E-21  7.39E-21  7.35E-21
  7.17E-21  7.42E-21  8.52E-21  7.14E-21  6.40E-21  6.10E-21  5.98E-21  6.48E-21
  5.90E-21  5.32E-21  5.45E-21  7.47E-21  9.75E-21  6.20E-21  9.34E-21  9.84E-21
  7.27E-21  8.98E-21  9.82E-21  8.04E-21  8.09E-21  6.77E-21  9.86E-21  9.89E-21
  8.36E-21  9.18E-21  6.58E-21  1.10E-13
 -1.6992E+00 -1.6991E+00 -1.6977E+00 -1.6972E+00 -1.6958E+00 -1.6956E+00
 -1.6943E+00 -1.6941E+00 -1.6933E+00 -1.6932E+00 -1.6918E+00 -1.6897E+00
 -1.6895E+00 -1.6864E+00 -1.6861E+00 -1.6729E+00 -1.6717E+00 -1.6716E+00
 -1.6705E+00 -1.6698E+00 -1.6689E+00 -1.6682E+00 -1.6675E+00 -1.6666E+00
 -1.6664E+00 -6.9467E-01 -6.9283E-01 -6.9282E-01 -6.9213E-01 -6.9206E-01
 -6.8549E-01 -6.8518E-01 -6.8390E-01 -6.8358E-01 -6.8343E-01 -6.8342E-01
 -6.8336E-01 -6.8324E-01 -6.8319E-01 -6.8304E-01 -6.8300E-01 -6.8285E-01
 -6.8267E-01 -6.8260E-01 -6.8252E-01 -6.8236E-01 -6.8143E-01 -6.8129E-01
 -6.8093E-01 -6.8092E-01 -4.4365E-01 -4.2761E-01 -4.0455E-01 -3.8084E-01
 -3.7408E-01 -1.5865E-01 -1.5539E-01 -1.2707E-01 -1.1751E-01 -8.5193E-02
 -7.6443E-02 -5.5989E-02 -4.1858E-02 -3.7296E-02 -2.1019E-02 -1.7865E-02
 -1.3941E-02  2.1690E-03  9.3946E-03  1.5939E-02  1.8872E-02  3.5404E-02
  3.7548E-02  6.0283E-02  9.0026E-02  1.7593E-01  2.0094E-01  2.1630E-01
  2.3580E-01  2.4009E-01  2.4444E-01  2.5579E-01  2.5698E-01  2.6160E-01
  2.7056E-01  2.7306E-01  2.7511E-01  2.9237E-01  2.9673E-01  3.0077E-01
  3.0983E-01  3.1095E-01  3.2279E-01  3.2601E-01  3.3559E-01  3.4341E-01
  3.4444E-01  3.5809E-01  3.6297E-01  3.9387E-01  4.0616E-01  4.1651E-01
  4.3838E-01  4.4907E-01  4.5640E-01  4.5977E-01  4.6471E-01  4.7753E-01
  4.8418E-01  5.0081E-01  5.0444E-01  5.0959E-01  5.1570E-01  5.2047E-01
  5.2361E-01  5.3180E-01  5.4391E-01  5.4876E-01  5.5095E-01  5.6154E-01
  5.6588E-01  5.6971E-01  5.7474E-01  5.9542E-01  5.9972E-01  6.0760E-01
  6.1720E-01  6.2250E-01  6.2664E-01  6.3189E-01  6.4085E-01  6.5030E-01
  6.5095E-01  6.7777E-01  6.7926E-01  6.8031E-01  6.9027E-01  6.9653E-01
  6.9969E-01  7.0725E-01  7.1058E-01  7.2797E-01  7.4669E-01  7.5164E-01
  7.5881E-01  7.5959E-01  7.6307E-01  7.7143E-01  7.7866E-01  8.0256E-01
  8.0432E-01  8.2211E-01  8.2314E-01  8.2915E-01  8.3450E-01  8.4691E-01
  8.4991E-01  8.5712E-01  8.6268E-01  8.7398E-01  8.7850E-01  9.0088E-01
  9.0376E-01  9.0654E-01  9.1101E-01  9.1354E-01  9.1459E-01  9.2765E-01
  9.3047E-01  9.3440E-01  9.3704E-01  9.4230E-01  9.4504E-01  9.5277E-01
  9.5618E-01  9.5679E-01  9.7386E-01  9.7761E-01  9.7821E-01  9.8282E-01
  prteigrs : nnsclo,ikpt=  200    1 max resid (incl. the buffer)=  1.09719E-13
 prteigrs : prtvol=0 or 1, do not print more k-points.

  prteigrs : nnsclo,ikpt=  200    2 max resid (incl. the buffer)=  1.99141E-07
  prteigrs : nnsclo,ikpt=  200    3 max resid (incl. the buffer)=  8.56444E-15
[...]
                       2.000000  2.000000  2.000000  2.000000  2.000000  2.000000
                       2.000000  2.000000  2.000000  2.000000  2.000000  2.000000
                       2.000000  2.000000  2.000000  0.000000  0.000000  0.000000
                       0.000000  0.000000  0.000000  0.000000  0.000000  0.000000
                       0.000000  0.000000  0.000000  0.000000  0.000000  0.000000
                       0.000000  0.000000  0.000000  0.000000  0.000000  0.000000
                       0.000000  0.000000  0.000000  0.000000  0.000000  0.000000
                       0.000000  0.000000  0.000000  0.000000  0.000000  0.000000
                       0.000000  0.000000  0.000000  0.000000  0.000000  0.000000
                       0.000000  0.000000  0.000000  0.000000  0.000000  0.000000
                       0.000000  0.000000  0.000000  0.000000  0.000000  0.000000
                       0.000000  0.000000  0.000000  0.000000  0.000000  0.000000
                       0.000000  0.000000  0.000000  0.000000  0.000000  0.000000
                       0.000000  0.000000  0.000000  0.000000  0.000000  0.000000
                       0.000000  0.000000  0.000000  0.000000  0.000000  0.000000
                       0.000000  0.000000  0.000000  0.000000  0.000000  0.000000
                       0.000000  0.000000  0.000000  0.000000  0.000000  0.000000
                       0.000000  0.000000  0.000000  0.000000  0.000000  0.000000
                       0.000000  0.000000  0.000000  0.000000  0.000000  0.000000
                       0.000000  0.000000  0.000000  0.000000  0.000000  0.000000
              occ5     2.000000  2.000000  2.000000  2.000000  2.000000  2.000000
                       2.000000  2.000000  2.000000  2.000000  2.000000  2.000000
                       2.000000  2.000000  2.000000  2.000000  2.000000  2.000000
                       2.000000  2.000000  2.000000  2.000000  2.000000  2.000000
                       2.000000  2.000000  2.000000  2.000000  2.000000  2.000000
                       2.000000  2.000000  2.000000  2.000000  2.000000  2.000000
                       2.000000  2.000000  2.000000  2.000000  2.000000  2.000000
                       2.000000  2.000000  2.000000  2.000000  2.000000  2.000000
                       2.000000  2.000000  2.000000  2.000000  2.000000  2.000000
                       2.000000  2.000000  2.000000  2.000000  2.000000  2.000000
                       2.000000  2.000000  2.000000  2.000000  2.000000  2.000000
                       2.000000  2.000000  2.000000  2.000000  2.000000  2.000000
                       2.000000  2.000000  2.000000  0.000000  0.000000  0.000000
                       0.000000  0.000000  0.000000  0.000000  0.000000  0.000000
                       0.000000  0.000000  0.000000  0.000000  0.000000  0.000000
                       0.000000  0.000000  0.000000  0.000000  0.000000  0.000000
                       0.000000  0.000000  0.000000  0.000000  0.000000  0.000000
                       0.000000  0.000000  0.000000  0.000000  0.000000  0.000000
                       0.000000  0.000000  0.000000  0.000000  0.000000  0.000000
                       0.000000  0.000000  0.000000  0.000000  0.000000  0.000000
                       0.000000  0.000000  0.000000  0.000000  0.000000  0.000000
                       0.000000  0.000000  0.000000  0.000000  0.000000  0.000000
                       0.000000  0.000000  0.000000  0.000000  0.000000  0.000000
                       0.000000  0.000000  0.000000  0.000000  0.000000  0.000000
                       0.000000  0.000000  0.000000  0.000000  0.000000  0.000000
                       0.000000  0.000000  0.000000  0.000000  0.000000  0.000000
                       0.000000  0.000000  0.000000  0.000000  0.000000  0.000000
                       0.000000  0.000000  0.000000  0.000000  0.000000  0.000000
                       0.000000  0.000000  0.000000  0.000000  0.000000  0.000000
                       0.000000  0.000000  0.000000  0.000000  0.000000  0.000000
              occ6     2.000000  2.000000  2.000000  2.000000  2.000000  2.000000
                       2.000000  2.000000  2.000000  2.000000  2.000000  2.000000
                       2.000000  2.000000  2.000000  2.000000  2.000000  2.000000
                       2.000000  2.000000  2.000000  2.000000  2.000000  2.000000
                       2.000000  2.000000  2.000000  2.000000  2.000000  2.000000
                       2.000000  2.000000  2.000000  2.000000  2.000000  2.000000
                       2.000000  2.000000  2.000000  2.000000  2.000000  2.000000
                       2.000000  2.000000  2.000000  2.000000  2.000000  2.000000
                       2.000000  2.000000  2.000000  2.000000  2.000000  2.000000
                       2.000000  2.000000  2.000000  2.000000  2.000000  2.000000
                       2.000000  2.000000  2.000000  2.000000  2.000000  2.000000
                       2.000000  2.000000  2.000000  2.000000  2.000000  2.000000
                       2.000000  2.000000  2.000000  0.000000  0.000000  0.000000
                       0.000000  0.000000  0.000000  0.000000  0.000000  0.000000
                       0.000000  0.000000  0.000000  0.000000  0.000000  0.000000
                       0.000000  0.000000  0.000000  0.000000  0.000000  0.000000
                       0.000000  0.000000  0.000000  0.000000  0.000000  0.000000
                       0.000000  0.000000  0.000000  0.000000  0.000000  0.000000
                       0.000000  0.000000  0.000000  0.000000  0.000000  0.000000
                       0.000000  0.000000  0.000000  0.000000  0.000000  0.000000
                       0.000000  0.000000  0.000000  0.000000  0.000000  0.000000
                       0.000000  0.000000  0.000000  0.000000  0.000000  0.000000
                       0.000000  0.000000  0.000000  0.000000  0.000000  0.000000
                       0.000000  0.000000  0.000000  0.000000  0.000000  0.000000
                       0.000000  0.000000  0.000000  0.000000  0.000000  0.000000
                       0.000000  0.000000  0.000000  0.000000  0.000000  0.000000
                       0.000000  0.000000  0.000000  0.000000  0.000000  0.000000
                       0.000000  0.000000  0.000000  0.000000  0.000000  0.000000
                       0.000000  0.000000  0.000000  0.000000  0.000000  0.000000
                       0.000000  0.000000  0.000000  0.000000  0.000000  0.000000
        optdriver1          0
        optdriver2          0
        optdriver3          0
        optdriver4          1
        optdriver5          1
        optdriver6          1
            prtwf1          1
            prtwf2          1
            prtwf3          1
            prtwf4          3
            prtwf5          3
            prtwf6          3
            rfdir1          0       0       0
            rfdir2          0       0       0
            rfdir3          0       0       0
            rfdir4          1       0       0
            rfdir5          0       1       0
            rfdir6          0       0       1
           rfelfd1          0
           rfelfd2          0
           rfelfd3          0
           rfelfd4          2
           rfelfd5          2
           rfelfd6          2
            rprim      1.0000000000E+00  0.0000000000E+00  0.0000000000E+00
                       0.0000000000E+00  1.0000000000E+00  0.0000000000E+00
                       0.0000000000E+00  0.0000000000E+00  4.9263938815E+00
           shiftk      5.00000000E-01  5.00000000E-01  5.00000000E-01
          spgroup          99
           strten1     1.2422042578E-02  1.2422042578E-02  1.2220069620E-02
                       0.0000000000E+00  0.0000000000E+00  0.0000000000E+00
           symrel      1  0  0   0  1  0   0  0  1       1  0  0   0 -1  0   0  0  1
                      -1  0  0   0 -1  0   0  0  1      -1  0  0   0  1  0   0  0  1
                       0  1  0   1  0  0   0  0  1       0  1  0  -1  0  0   0  0  1
                       0 -1  0  -1  0  0   0  0  1       0 -1  0   1  0  0   0  0  1
            tnons      0.0000000  0.0000000  0.0000000     0.0000000  0.0000000  0.0000000
                       0.0000000  0.0000000  0.0000000     0.0000000  0.0000000  0.0000000
                       0.5000000  0.5000000  0.0000000     0.5000000  0.5000000  0.0000000
                       0.5000000  0.5000000  0.0000000     0.5000000  0.5000000  0.0000000
           tolwfr      1.00000000E-20
            typat      1  1  1  1  1  2  2  2  2  2
           vdw_xc           5
              wtk1       0.06250    0.12500    0.12500    0.12500    0.06250    0.12500
                         0.12500    0.06250    0.12500    0.06250
              wtk2       0.06250    0.12500    0.12500    0.12500    0.06250    0.12500
                         0.12500    0.06250    0.12500    0.06250
              wtk3       0.01563    0.01563    0.01563    0.01563    0.01563    0.01563
                         0.01563    0.01563    0.01563    0.01563    0.01563    0.01563
                         0.01563    0.01563    0.01563    0.01563    0.01563    0.01563
                         0.01563    0.01563    0.01563    0.01563    0.01563    0.01563
                         0.01563    0.01563    0.01563    0.01563    0.01563    0.01563
                         0.01563    0.01563    0.01563    0.01563    0.01563    0.01563
                         0.01563    0.01563    0.01563    0.01563    0.01563    0.01563
                         0.01563    0.01563    0.01563    0.01563    0.01563    0.01563
                         0.01563    0.01563
              wtk4       0.01563    0.01563    0.01563    0.01563    0.01563    0.01563
                         0.01563    0.01563    0.01563    0.01563    0.01563    0.01563
                         0.01563    0.01563    0.01563    0.01563    0.01563    0.01563
                         0.01563    0.01563    0.01563    0.01563    0.01563    0.01563
                         0.01563    0.01563    0.01563    0.01563    0.01563    0.01563
                         0.01563    0.01563    0.01563    0.01563    0.01563    0.01563
                         0.01563    0.01563    0.01563    0.01563    0.01563    0.01563
                         0.01563    0.01563    0.01563    0.01563    0.01563    0.01563
                         0.01563    0.01563
              wtk5       0.01563    0.01563    0.01563    0.01563    0.01563    0.01563
                         0.01563    0.01563    0.01563    0.01563    0.01563    0.01563
                         0.01563    0.01563    0.01563    0.01563    0.01563    0.01563
                         0.01563    0.01563    0.01563    0.01563    0.01563    0.01563
                         0.01563    0.01563    0.01563    0.01563    0.01563    0.01563
                         0.01563    0.01563    0.01563    0.01563    0.01563    0.01563
                         0.01563    0.01563    0.01563    0.01563    0.01563    0.01563
                         0.01563    0.01563    0.01563    0.01563    0.01563    0.01563
                         0.01563    0.01563
              wtk6       0.01563    0.01563    0.01563    0.01563    0.01563    0.01563
                         0.01563    0.01563    0.01563    0.01563    0.01563    0.01563
                         0.01563    0.01563    0.01563    0.01563    0.01563    0.01563
                         0.01563    0.01563    0.01563    0.01563    0.01563    0.01563
                         0.01563    0.01563    0.01563    0.01563    0.01563    0.01563
                         0.01563    0.01563    0.01563    0.01563    0.01563    0.01563
                         0.01563    0.01563    0.01563    0.01563    0.01563    0.01563
                         0.01563    0.01563    0.01563    0.01563    0.01563    0.01563
                         0.01563    0.01563
                       outvars : Printing only first  50 k-points.
           xangst      2.0538509643E+00  0.0000000000E+00  4.6664781898E+00
                       0.0000000000E+00  2.0538509643E+00  7.4161065825E+00
                       2.0538509643E+00  0.0000000000E+00  1.0102193440E+01
                       0.0000000000E+00  2.0538509643E+00  1.2851821833E+01
                       2.0538509643E+00  0.0000000000E+00  1.5537928927E+01
                       0.0000000000E+00  2.0538509643E+00  4.6982287211E+00
                       2.0538509643E+00  0.0000000000E+00  7.3843358150E+00
                       0.0000000000E+00  2.0538509643E+00  1.0133964208E+01
                       2.0538509643E+00  0.0000000000E+00  1.2820051065E+01
                       0.0000000000E+00  2.0538509643E+00  1.5569699694E+01
            xcart      3.8812158402E+00  0.0000000000E+00  8.8183657837E+00
                       0.0000000000E+00  3.8812158402E+00  1.4014410413E+01
                       3.8812158402E+00  0.0000000000E+00  1.9090378943E+01
                       0.0000000000E+00  3.8812158402E+00  2.4286423573E+01
                       3.8812158402E+00  0.0000000000E+00  2.9362430344E+01
                       0.0000000000E+00  3.8812158402E+00  8.8783655925E+00
                       3.8812158402E+00  0.0000000000E+00  1.3954372364E+01
                       0.0000000000E+00  3.8812158402E+00  1.9150416993E+01
                       3.8812158402E+00  0.0000000000E+00  2.4226385523E+01
                       0.0000000000E+00  3.8812158402E+00  2.9422468393E+01
             xred      5.0000000000E-01  0.0000000000E+00  2.3060100000E-01
                       0.0000000000E+00  5.0000000000E-01  3.6647800000E-01
                       5.0000000000E-01  0.0000000000E+00  4.9921500000E-01
                       0.0000000000E+00  5.0000000000E-01  6.3509200000E-01
                       5.0000000000E-01  0.0000000000E+00  7.6783000000E-01
                       0.0000000000E+00  5.0000000000E-01  2.3217000000E-01
                       5.0000000000E-01  0.0000000000E+00  3.6490800000E-01
                       0.0000000000E+00  5.0000000000E-01  5.0078500000E-01
                       5.0000000000E-01  0.0000000000E+00  6.3352200000E-01
                       0.0000000000E+00  5.0000000000E-01  7.6940000000E-01
            znucl       50.00000   34.00000

================================================================================


- Timing analysis has been suppressed with timopt=0



================================================================================

 Suggested references for the acknowledgment of ABINIT usage.

 The users of ABINIT have little formal obligations with respect to the ABINIT group
 (those specified in the GNU General Public License, http://www.gnu.org/copyleft/gpl.txt).
 However, it is common practice in the scientific literature,
 to acknowledge the efforts of people that have made the research possible.
 In this spirit, please find below suggested citations of work written by ABINIT developers,
 corresponding to implementations inside of ABINIT that you have used in the present run.
 Note also that it will be of great value to readers of publications presenting these results,
 to read papers enabling them to understand the theoretical formalism and details
 of the ABINIT implementation.
 For information on why they are suggested, see also https://docs.abinit.org/theory/acknowledgments.
-
- [1] The Abinit project: Impact, environment and recent developments.
- Computer Phys. Comm. 248, 107042 (2020).
- X.Gonze, B. Amadon, G. Antonius, F.Arnardi, L.Baguet, J.-M.Beuken,
- J.Bieder, F.Bottin, J.Bouchet, E.Bousquet, N.Brouwer, F.Bruneval,
- G.Brunin, T.Cavignac, J.-B. Charraud, Wei Chen, M.Cote, S.Cottenier,
- J.Denier, G.Geneste, Ph.Ghosez, M.Giantomassi, Y.Gillet, O.Gingras,
- D.R.Hamann, G.Hautier, Xu He, N.Helbig, N.Holzwarth, Y.Jia, F.Jollet,
- W.Lafargue-Dit-Hauret, K.Lejaeghere, M.A.L.Marques, A.Martin, C.Martins,
- H.P.C. Miranda, F.Naccarato, K. Persson, G.Petretto, V.Planes, Y.Pouillon,
- S.Prokhorenko, F.Ricci, G.-M.Rignanese, A.H.Romero, M.M.Schmitt, M.Torrent,
- M.J.van Setten, B.Van Troeye, M.J.Verstraete, G.Zerah and J.W.Zwanzig
- Comment: the fifth generic paper describing the ABINIT project.
- Note that a version of this paper, that is not formatted for Computer Phys. Comm. 
- is available at https://www.abinit.org/sites/default/files/ABINIT20.pdf .
- The licence allows the authors to put it on the Web.
- DOI and bibtex: see https://docs.abinit.org/theory/bibliography/#gonze2020
-
- [2] First-principles responses of solids to atomic displacements and homogeneous electric fields:,
- implementation of a conjugate-gradient algorithm. X. Gonze, Phys. Rev. B55, 10337 (1997).
- Comment: Non-vanishing rfphon and/or rfelfd, in the norm-conserving case.
- DOI and bibtex: see https://docs.abinit.org/theory/bibliography/#gonze1997
-
- [3] Dynamical matrices, Born effective charges, dielectric permittivity tensors, and ,
- interatomic force constants from density-functional perturbation theory,
- X. Gonze and C. Lee, Phys. Rev. B55, 10355 (1997).
- Comment: Non-vanishing rfphon and/or rfelfd, in the norm-conserving case.
- DOI and bibtex: see https://docs.abinit.org/theory/bibliography/#gonze1997a
-
- [4] Optimized norm-conserving Vanderbilt pseudopotentials.
- D.R. Hamann, Phys. Rev. B 88, 085117 (2013).
- Comment: Some pseudopotential generated using the ONCVPSP code were used.
- DOI and bibtex: see https://docs.abinit.org/theory/bibliography/#hamann2013
-
- [5] ABINIT: Overview, and focus on selected capabilities
- J. Chem. Phys. 152, 124102 (2020).
- A. Romero, D.C. Allan, B. Amadon, G. Antonius, T. Applencourt, L.Baguet,
- J.Bieder, F.Bottin, J.Bouchet, E.Bousquet, F.Bruneval,
- G.Brunin, D.Caliste, M.Cote,
- J.Denier, C. Dreyer, Ph.Ghosez, M.Giantomassi, Y.Gillet, O.Gingras,
- D.R.Hamann, G.Hautier, F.Jollet, G. Jomard,
- A.Martin, 
- H.P.C. Miranda, F.Naccarato, G.Petretto, N.A. Pike, V.Planes,
- S.Prokhorenko, T. Rangel, F.Ricci, G.-M.Rignanese, M.Royo, M.Stengel, M.Torrent,
- M.J.van Setten, B.Van Troeye, M.J.Verstraete, J.Wiktor, J.W.Zwanziger, and X.Gonze.
- Comment: a global overview of ABINIT, with focus on selected capabilities .
- Note that a version of this paper, that is not formatted for J. Chem. Phys 
- is available at https://www.abinit.org/sites/default/files/ABINIT20_JPC.pdf .
- The licence allows the authors to put it on the Web.
- DOI and bibtex: see https://docs.abinit.org/theory/bibliography/#romero2020
-
- [6] Recent developments in the ABINIT software package.
- Computer Phys. Comm. 205, 106 (2016).
- X.Gonze, F.Jollet, F.Abreu Araujo, D.Adams, B.Amadon, T.Applencourt,
- C.Audouze, J.-M.Beuken, J.Bieder, A.Bokhanchuk, E.Bousquet, F.Bruneval
- D.Caliste, M.Cote, F.Dahm, F.Da Pieve, M.Delaveau, M.Di Gennaro,
- B.Dorado, C.Espejo, G.Geneste, L.Genovese, A.Gerossier, M.Giantomassi,
- Y.Gillet, D.R.Hamann, L.He, G.Jomard, J.Laflamme Janssen, S.Le Roux,
- A.Levitt, A.Lherbier, F.Liu, I.Lukacevic, A.Martin, C.Martins,
- M.J.T.Oliveira, S.Ponce, Y.Pouillon, T.Rangel, G.-M.Rignanese,
- A.H.Romero, B.Rousseau, O.Rubel, A.A.Shukri, M.Stankovski, M.Torrent,
- M.J.Van Setten, B.Van Troeye, M.J.Verstraete, D.Waroquier, J.Wiktor,
- B.Xu, A.Zhou, J.W.Zwanziger.
- Comment: the fourth generic paper describing the ABINIT project.
- Note that a version of this paper, that is not formatted for Computer Phys. Comm. 
- is available at https://www.abinit.org/sites/default/files/ABINIT16.pdf .
- The licence allows the authors to put it on the Web.
- DOI and bibtex: see https://docs.abinit.org/theory/bibliography/#gonze2016
-
- Proc.   0 individual time (sec): cpu=       3885.3  wall=       3885.6

================================================================================

 Calculation completed.
.Delivered   6 WARNINGs and   0 COMMENTs to log file.
+Overall time at end (sec) : cpu=      23312.0  wall=      23313.0
