
.Version 9.2.2 of ABINIT 
.(MPI version, prepared for a x86_64_linux_gnu9.3 computer) 

.Copyright (C) 1998-2020 ABINIT group . 
 ABINIT comes with ABSOLUTELY NO WARRANTY.
 It is free software, and you are welcome to redistribute it
 under certain conditions (GNU General Public License,
 see ~abinit/COPYING or http://www.gnu.org/copyleft/gpl.txt).

 ABINIT is a project of the Universite Catholique de Louvain,
 Corning Inc. and other collaborators, see ~abinit/doc/developers/contributors.txt .
 Please read https://docs.abinit.org/theory/acknowledgments for suggested
 acknowledgments of the ABINIT effort.
 For more information, see https://www.abinit.org .

.Starting date : Sun 25 Feb 2024.
- ( at 20h12 )
  
- The starting date is more than 3 years after the initial release
- of this version of ABINIT, namely Nov 2020.
- This version of ABINIT is not supported anymore.
- Action: please, switch to a more recent version of ABINIT.
- input  file    -> Cs2TiI6.in
- output file    -> Cs2TiI6.out
- root for input  files -> Cs2TiI6i
- root for output files -> Cs2TiI6o


 Symmetries : space group P4/n m m (#129); Bravais tP (primitive tetrag.)
================================================================================
 Values of the parameters that define the memory need of the present run
     intxc =       0    ionmov =       0      iscf =      17    lmnmax =       6
     lnmax =       6     mgfft =     192  mpssoang =       3    mqgrid =    9263
     natom =      12  nloc_mem =       1    nspden =       1   nspinor =       1
    nsppol =       1      nsym =      16    n1xccc =    2501    ntypat =       2
    occopt =       1   xclevel =       2
-    mband =          92        mffmem =           1         mkmem =           2
       mpw =       13362          nfft =      248832          nkpt =          10
================================================================================
P This job should need less than                     126.345 Mbytes of memory.
  Rough estimation (10% accuracy) of disk space for files :
_ WF disk file :    187.579 Mbytes ; DEN or POT disk file :      1.900 Mbytes.
================================================================================

--------------------------------------------------------------------------------
------------- Echo of variables that govern the present computation ------------
--------------------------------------------------------------------------------
-
- outvars: echo of selected default values                                      
-   iomode0 =  0 , fftalg0 =112 , wfoptalg0 =  0
-
- outvars: echo of global parameters not present in the input file              
-  max_nthreads =    0
-
 -outvars: echo values of preprocessed input variables --------
            acell      7.7624316804E+00  7.7624316804E+00  7.7624316804E+00 Bohr
              amu      1.18710000E+02  7.89600000E+01
           diemac      1.20000000E+01
             ecut      2.25000000E+01 Hartree
-          fftalg         112
             iscf          17
              ixc          11
              kpt      6.25000000E-02  6.25000000E-02  5.00000000E-01
                       1.87500000E-01  6.25000000E-02  5.00000000E-01
                       3.12500000E-01  6.25000000E-02  5.00000000E-01
                       4.37500000E-01  6.25000000E-02  5.00000000E-01
                       1.87500000E-01  1.87500000E-01  5.00000000E-01
                       3.12500000E-01  1.87500000E-01  5.00000000E-01
                       4.37500000E-01  1.87500000E-01  5.00000000E-01
                       3.12500000E-01  3.12500000E-01  5.00000000E-01
                       4.37500000E-01  3.12500000E-01  5.00000000E-01
                       4.37500000E-01  4.37500000E-01  5.00000000E-01
         kptrlatt        8    0    0      0    8    0      0    0    1
          kptrlen      6.20994534E+01
P           mkmem           2
            natom          12
            nband          92
            ngfft          36      36     192
             nkpt          10
            nstep         150
             nsym          16
           ntypat           2
              occ      2.000000  2.000000  2.000000  2.000000  2.000000  2.000000
                       2.000000  2.000000  2.000000  2.000000  2.000000  2.000000
                       2.000000  2.000000  2.000000  2.000000  2.000000  2.000000
                       2.000000  2.000000  2.000000  2.000000  2.000000  2.000000
                       2.000000  2.000000  2.000000  2.000000  2.000000  2.000000
                       2.000000  2.000000  2.000000  2.000000  2.000000  2.000000
                       2.000000  2.000000  2.000000  2.000000  2.000000  2.000000
                       2.000000  2.000000  2.000000  2.000000  2.000000  2.000000
                       2.000000  2.000000  2.000000  2.000000  2.000000  2.000000
                       2.000000  2.000000  2.000000  2.000000  2.000000  2.000000
                       2.000000  2.000000  2.000000  2.000000  2.000000  2.000000
                       2.000000  2.000000  2.000000  2.000000  2.000000  2.000000
                       2.000000  2.000000  2.000000  2.000000  2.000000  2.000000
                       2.000000  2.000000  2.000000  2.000000  2.000000  2.000000
                       2.000000  2.000000  2.000000  2.000000  2.000000  2.000000
                       0.000000  0.000000
           prtcif           1
            rprim      1.0000000000E+00  0.0000000000E+00  0.0000000000E+00
                       0.0000000000E+00  1.0000000000E+00  0.0000000000E+00
                       0.0000000000E+00  0.0000000000E+00  5.5880443615E+00
           shiftk      5.00000000E-01  5.00000000E-01  5.00000000E-01
          spgroup         129
           symrel      1  0  0   0  1  0   0  0  1      -1  0  0   0 -1  0   0  0 -1
                      -1  0  0   0  1  0   0  0 -1       1  0  0   0 -1  0   0  0  1
                      -1  0  0   0 -1  0   0  0  1       1  0  0   0  1  0   0  0 -1
                       1  0  0   0 -1  0   0  0 -1      -1  0  0   0  1  0   0  0  1
                       0  1  0   1  0  0   0  0  1       0 -1  0  -1  0  0   0  0 -1
                       0 -1  0   1  0  0   0  0 -1       0  1  0  -1  0  0   0  0  1
                       0 -1  0  -1  0  0   0  0  1       0  1  0   1  0  0   0  0 -1
                       0  1  0  -1  0  0   0  0 -1       0 -1  0   1  0  0   0  0  1
            tnons      0.0000000  0.0000000  0.0000000     0.5000000  0.5000000 -0.0000000
                       0.5000000  0.5000000 -0.0000000     0.0000000  0.0000000  0.0000000
                      -0.0000000  0.0000000  0.0000000     0.5000000  0.5000000 -0.0000000
                       0.5000000  0.5000000 -0.0000000    -0.0000000  0.0000000  0.0000000
                       0.5000000  0.5000000  0.0000000     0.0000000 -0.0000000 -0.0000000
                       0.0000000 -0.0000000 -0.0000000     0.5000000  0.5000000  0.0000000
                       0.5000000  0.5000000  0.0000000     0.0000000  0.0000000 -0.0000000
                       0.0000000  0.0000000 -0.0000000     0.5000000  0.5000000  0.0000000
           toldfe      1.00000000E-06 Hartree
            typat      1  1  1  1  1  1  2  2  2  2  2  2
           vdw_xc           5
              wtk        0.06250    0.12500    0.12500    0.12500    0.06250    0.12500
                         0.12500    0.06250    0.12500    0.06250
           xangst      2.0538509643E+00  0.0000000000E+00  4.6664605720E+00
                       0.0000000000E+00  2.0538509643E+00  7.4160997457E+00
                       2.0538509643E+00  0.0000000000E+00  1.0102202190E+01
                       0.0000000000E+00  2.0538509643E+00  1.2851818410E+01
                       2.0538509643E+00  0.0000000000E+00  1.5537920855E+01
                       0.0000000000E+00  2.0538509643E+00  1.8287560029E+01
                       0.0000000000E+00  2.0538509643E+00  4.6982289365E+00
                       2.0538509643E+00  0.0000000000E+00  7.3843313812E+00
                       0.0000000000E+00  2.0538509643E+00  1.0133970555E+01
                       2.0538509643E+00  0.0000000000E+00  1.2820050046E+01
                       0.0000000000E+00  2.0538509643E+00  1.5569689219E+01
                       2.0538509643E+00  0.0000000000E+00  1.8255791664E+01
            xcart      3.8812158402E+00  0.0000000000E+00  8.8183324910E+00
                       0.0000000000E+00  3.8812158402E+00  1.4014397494E+01
                       3.8812158402E+00  0.0000000000E+00  1.9090395479E+01
                       0.0000000000E+00  3.8812158402E+00  2.4286417105E+01
                       3.8812158402E+00  0.0000000000E+00  2.9362415090E+01
                       0.0000000000E+00  3.8812158402E+00  3.4558480093E+01
                       0.0000000000E+00  3.8812158402E+00  8.8783659996E+00
                       3.8812158402E+00  0.0000000000E+00  1.3954363985E+01
                       0.0000000000E+00  3.8812158402E+00  1.9150428988E+01
                       3.8812158402E+00  0.0000000000E+00  2.4226383596E+01
                       0.0000000000E+00  3.8812158402E+00  2.9422448599E+01
                       3.8812158402E+00  0.0000000000E+00  3.4498446584E+01
             xred      5.0000000000E-01  0.0000000000E+00  2.0329600000E-01
                       0.0000000000E+00  5.0000000000E-01  3.2308500000E-01
                       5.0000000000E-01  0.0000000000E+00  4.4010600000E-01
                       0.0000000000E+00  5.0000000000E-01  5.5989400000E-01
                       5.0000000000E-01  0.0000000000E+00  6.7691500000E-01
                       0.0000000000E+00  5.0000000000E-01  7.9670400000E-01
                       0.0000000000E+00  5.0000000000E-01  2.0468000000E-01
                       5.0000000000E-01  0.0000000000E+00  3.2170100000E-01
                       0.0000000000E+00  5.0000000000E-01  4.4149000000E-01
                       5.0000000000E-01  0.0000000000E+00  5.5851000000E-01
                       0.0000000000E+00  5.0000000000E-01  6.7829900000E-01
                       5.0000000000E-01  0.0000000000E+00  7.9532000000E-01
            znucl       50.00000   34.00000

================================================================================

 chkinp: Checking input parameters for consistency.

================================================================================
== DATASET  1 ==================================================================
-   mpi_nproc: 6, omp_nthreads: -1 (-1 if OMP is not activated)


--- !DatasetInfo
iteration_state: {dtset: 1, }
dimensions: {natom: 12, nkpt: 10, mband: 92, nsppol: 1, nspinor: 1, nspden: 1, mpw: 13362, }
cutoff_energies: {ecut:  22.5, pawecutdg:  -1.0, }
electrons: {nelect:   1.80000000E+02, charge:   0.00000000E+00, occopt:   1.00000000E+00, tsmear:   1.00000000E-02, }
meta: {optdriver: 0, ionmov: 0, optcell: 0, iscf: 17, paral_kgb: 0, }
...

 Exchange-correlation functional for the present dataset will be:
  GGA: Perdew-Burke-Ernzerhof functional - ixc=11
 Citation for XC functional:
  J.P.Perdew, K.Burke, M.Ernzerhof, PRL 77, 3865 (1996)

 Real(R)+Recip(G) space primitive vectors, cartesian coordinates (Bohr,Bohr^-1):
 R(1)=  7.7624317  0.0000000  0.0000000  G(1)=  0.1288256  0.0000000  0.0000000
 R(2)=  0.0000000  7.7624317  0.0000000  G(2)=  0.0000000  0.1288256  0.0000000
 R(3)=  0.0000000  0.0000000 43.3768126  G(3)=  0.0000000  0.0000000  0.0230538
 Unit cell volume ucvol=  2.6136848E+03 bohr^3
 Angles (23,13,12)=  9.00000000E+01  9.00000000E+01  9.00000000E+01 degrees

 getcut: wavevector=  0.0000  0.0000  0.0000  ngfft=  36  36 192
         ecut(hartree)=     22.500   => boxcut(ratio)=   2.07294

--- Pseudopotential description ------------------------------------------------
- pspini: atom type   1  psp file is ../../../Psps_for_tests/ATOMICDATA_NC/Sn.psp8
- pspatm: opening atomic psp file    ../../../Psps_for_tests/ATOMICDATA_NC/Sn.psp8
- Sn    ONCVPSP  r_core=  2.27  2.62  1.86
- 50.00000  14.00000    150810                znucl, zion, pspdat
    8   11    2    4       600   0.00000      pspcod,pspxc,lmax,lloc,mmax,r2well
    5.99000000000000    6.50000000000000    0.00000000000000   rchrg,fchrg,qchrg
     nproj     2     2     2
     extension_switch     1
  pspatm : epsatm=   32.65190642
         --- l  ekb(1:nproj) -->
             0    5.462393    0.682281
             1    4.443814    0.825686
             2   -5.382195   -1.704077
 pspatm: atomic psp has been read  and splines computed

- pspini: atom type   2  psp file is ../../../Psps_for_tests/ATOMICDATA_NC/Se.psp8
- pspatm: opening atomic psp file    ../../../Psps_for_tests/ATOMICDATA_NC/Se.psp8
- Se    ONCVPSP  r_core=  1.82  1.50  1.91
- 34.00000  16.00000    150729                znucl, zion, pspdat
    8   11    2    4       600   0.00000      pspcod,pspxc,lmax,lloc,mmax,r2well
    5.99000000000000    5.00000000000000    0.00000000000000   rchrg,fchrg,qchrg
     nproj     2     2     2
     extension_switch     1
  pspatm : epsatm=   29.53325930
         --- l  ekb(1:nproj) -->
             0    8.612261    0.939919
             1    6.984962    1.281898
             2   -9.322521   -3.856218
 pspatm: atomic psp has been read  and splines computed

   6.71599790E+04                                ecore*ucvol(ha*bohr**3)
--------------------------------------------------------------------------------

_setup2: Arith. and geom. avg. npw (full set) are   13323.375   13323.364

================================================================================

--- !BeginCycle
iteration_state: {dtset: 1, }
solver: {iscf: 17, nstep: 150, nline: 4, wfoptalg: 0, }
tolerances: {toldfe: 1.00E-06, }
...

     iter   Etot(hartree)      deltaE(h)  residm     nres2
 ETOT  1  -1172.8022852405    -1.173E+03 8.600E-01 2.590E+02
 ETOT  2  -1195.2137932296    -2.241E+01 7.872E-02 1.634E+02
 ETOT  3  -1193.8101452486     1.404E+00 2.673E-02 1.228E+01
 ETOT  4  -1193.6951265336     1.150E-01 6.107E-03 1.825E+00
 ETOT  5  -1193.6530014125     4.213E-02 4.576E-03 3.628E-01
 ETOT  6  -1193.6459238121     7.078E-03 1.868E-03 3.217E-02
 ETOT  7  -1193.6435747340     2.349E-03 8.241E-04 1.169E-02
 ETOT  8  -1193.6420212690     1.553E-03 5.846E-04 5.884E-03
 ETOT  9  -1193.6415220693     4.992E-04 1.376E-04 3.822E-03
 ETOT 10  -1193.6410976052     4.245E-04 1.231E-04 1.586E-03
 ETOT 11  -1193.6410683995     2.921E-05 5.483E-05 6.060E-04
 ETOT 12  -1193.6411674536    -9.905E-05 6.038E-05 1.058E-04
 ETOT 13  -1193.6412423376    -7.488E-05 3.879E-05 1.011E-05
 ETOT 14  -1193.6412571955    -1.486E-05 4.425E-05 5.181E-07
 ETOT 15  -1193.6412576735    -4.780E-07 3.007E-05 6.484E-08
 ETOT 16  -1193.6412577026    -2.911E-08 3.377E-05 4.615E-09

 At SCF step   16, etot is converged : 
  for the second time, diff in etot=  2.911E-08 < toldfe=  1.000E-06

 Cartesian components of stress tensor (hartree/bohr^3)
  sigma(1 1)=  1.31400578E-02  sigma(3 2)=  0.00000000E+00
  sigma(2 2)=  1.31400578E-02  sigma(3 1)=  0.00000000E+00
  sigma(3 3)=  1.28837268E-02  sigma(2 1)=  0.00000000E+00


--- !ResultsGS
iteration_state: {dtset: 1, }
comment   : Summary of ground state results
lattice_vectors:
- [  7.7624317,   0.0000000,   0.0000000, ]
- [  0.0000000,   7.7624317,   0.0000000, ]
- [  0.0000000,   0.0000000,  43.3768126, ]
lattice_lengths: [   7.76243,    7.76243,   43.37681, ]
lattice_angles: [ 90.000,  90.000,  90.000, ] # degrees, (23, 13, 12)
lattice_volume:   2.6136848E+03
convergence: {deltae: -2.911E-08, res2:  4.615E-09, residm:  3.377E-05, diffor: null, }
etotal    :  -1.19364126E+03
entropy   :   0.00000000E+00
fermie    :   1.35874901E-01
cartesian_stress_tensor: # hartree/bohr^3
- [  1.31400578E-02,   0.00000000E+00,   0.00000000E+00, ]
- [  0.00000000E+00,   1.31400578E-02,   0.00000000E+00, ]
- [  0.00000000E+00,   0.00000000E+00,   1.28837268E-02, ]
pressure_GPa:  -3.8408E+02
xred      :
- [  5.0000E-01,   0.0000E+00,   2.0330E-01, Sn]
- [  0.0000E+00,   5.0000E-01,   3.2309E-01, Sn]
- [  5.0000E-01,   0.0000E+00,   4.4011E-01, Sn]
- [  0.0000E+00,   5.0000E-01,   5.5989E-01, Sn]
- [  5.0000E-01,   0.0000E+00,   6.7692E-01, Sn]
- [  0.0000E+00,   5.0000E-01,   7.9670E-01, Sn]
- [  0.0000E+00,   5.0000E-01,   2.0468E-01, Se]
- [  5.0000E-01,   0.0000E+00,   3.2170E-01, Se]
- [  0.0000E+00,   5.0000E-01,   4.4149E-01, Se]
- [  5.0000E-01,   0.0000E+00,   5.5851E-01, Se]
- [  0.0000E+00,   5.0000E-01,   6.7830E-01, Se]
- [  5.0000E-01,   0.0000E+00,   7.9532E-01, Se]
cartesian_forces: # hartree/bohr
- [ -8.72285436E-31,  -1.35500650E-30,  -1.28364433E-02, ]
- [  1.43969441E-31,   2.71001301E-31,  -1.33579754E-02, ]
- [  4.48845904E-31,   2.71001301E-31,   4.44592159E-03, ]
- [  1.43969441E-31,   2.71001301E-31,  -4.44592159E-03, ]
- [  5.50471392E-31,   2.71001301E-31,   1.33579754E-02, ]
- [  1.43969441E-31,   2.71001301E-31,   1.28364433E-02, ]
- [  1.43969441E-31,   2.71001301E-31,  -1.50011931E-02, ]
- [ -2.62532510E-31,   2.71001301E-31,  -9.57443563E-03, ]
- [  1.43969441E-31,   2.71001301E-31,   1.94013323E-03, ]
- [  1.43969441E-31,   2.71001301E-31,  -1.94013323E-03, ]
- [  1.43969441E-31,   2.71001301E-31,   9.57443563E-03, ]
- [ -8.72285436E-31,  -1.35500650E-30,   1.50011931E-02, ]
force_length_stats: {min:   1.94013323E-03, max:   1.50011931E-02, mean:   9.52601704E-03, }
...

 Integrated electronic density in atomic spheres:
 ------------------------------------------------
 Atom  Sphere_radius  Integrated_density
    1        2.00000         10.55065803
    2        2.00000         10.57725538
    3        2.00000         10.54752266
    4        2.00000         10.54752266
    5        2.00000         10.57725538
    6        2.00000         10.55065803
    7        2.00000         13.31574757
    8        2.00000         13.31882996
    9        2.00000         13.32301638
   10        2.00000         13.32301638
   11        2.00000         13.31882996
   12        2.00000         13.31574757
================================================================================

 ----iterations are completed or convergence reached----

 Mean square residual over all n,k,spin=   43.577E-09; max=  33.774E-06
 reduced coordinates (array xred) for   12 atoms
       0.500000000000      0.000000000000      0.203296000000
       0.000000000000      0.500000000000      0.323085000000
       0.500000000000      0.000000000000      0.440106000000
       0.000000000000      0.500000000000      0.559894000000
       0.500000000000      0.000000000000      0.676915000000
       0.000000000000      0.500000000000      0.796704000000
       0.000000000000      0.500000000000      0.204680000000
       0.500000000000      0.000000000000      0.321701000000
       0.000000000000      0.500000000000      0.441490000000
       0.500000000000      0.000000000000      0.558510000000
       0.000000000000      0.500000000000      0.678299000000
       0.500000000000      0.000000000000      0.795320000000
 rms dE/dt=  2.6728E-01; max dE/dt=  6.5070E-01; dE/dt below (all hartree)
    1       0.000000000000      0.000000000000      0.556803994915
    2       0.000000000000      0.000000000000      0.579426395745
    3      -0.000000000000      0.000000000000     -0.192849907403
    4       0.000000000000      0.000000000000      0.192849907403
    5      -0.000000000000      0.000000000000     -0.579426395745
    6       0.000000000000      0.000000000000     -0.556803994915
    7       0.000000000000      0.000000000000      0.650703942140
    8       0.000000000000      0.000000000000      0.415308500095
    9       0.000000000000      0.000000000000     -0.084156795381
   10       0.000000000000      0.000000000000      0.084156795381
   11       0.000000000000      0.000000000000     -0.415308500095
   12       0.000000000000      0.000000000000     -0.650703942140

 cartesian coordinates (angstrom) at end:
    1      2.05385096425820     0.00000000000000     4.66646057200870
    2      0.00000000000000     2.05385096425820     7.41609974572756
    3      2.05385096425820     0.00000000000000    10.10220219042411
    4      0.00000000000000     2.05385096425820    12.85181841012237
    5      2.05385096425820     0.00000000000000    15.53792085481893
    6      0.00000000000000     2.05385096425820    18.28756002853779
    7      0.00000000000000     2.05385096425820     4.69822893651985
    8      2.05385096425820     0.00000000000000     7.38433138121641
    9      0.00000000000000     2.05385096425820    10.13397055493527
   10      2.05385096425820     0.00000000000000    12.82005004561122
   11      0.00000000000000     2.05385096425820    15.56968921933008
   12      2.05385096425820     0.00000000000000    18.25579166402663

 cartesian forces (hartree/bohr) at end:
    1     -0.00000000000000    -0.00000000000000    -0.01283644329195
    2      0.00000000000000     0.00000000000000    -0.01335797540742
    3      0.00000000000000     0.00000000000000     0.00444592158612
    4      0.00000000000000     0.00000000000000    -0.00444592158612
    5      0.00000000000000     0.00000000000000     0.01335797540742
    6      0.00000000000000     0.00000000000000     0.01283644329195
    7      0.00000000000000     0.00000000000000    -0.01500119311176
    8     -0.00000000000000     0.00000000000000    -0.00957443563412
    9      0.00000000000000     0.00000000000000     0.00194013322715
   10      0.00000000000000     0.00000000000000    -0.00194013322715
   11      0.00000000000000     0.00000000000000     0.00957443563412
   12     -0.00000000000000    -0.00000000000000     0.01500119311176
 frms,max,avg= 6.1619159E-03 1.5001193E-02   0.000E+00  0.000E+00  0.000E+00 h/b

 cartesian forces (eV/Angstrom) at end:
    1     -0.00000000000000    -0.00000000000000    -0.66007639812187
    2      0.00000000000000     0.00000000000000    -0.68689465552076
    3      0.00000000000000     0.00000000000000     0.22861846074909
    4      0.00000000000000     0.00000000000000    -0.22861846074909
    5      0.00000000000000     0.00000000000000     0.68689465552076
    6      0.00000000000000     0.00000000000000     0.66007639812187
    7      0.00000000000000     0.00000000000000    -0.77139230015157
    8     -0.00000000000000     0.00000000000000    -0.49233723420755
    9      0.00000000000000     0.00000000000000     0.09976565340759
   10      0.00000000000000     0.00000000000000    -0.09976565340759
   11      0.00000000000000     0.00000000000000     0.49233723420755
   12     -0.00000000000000    -0.00000000000000     0.77139230015157
 frms,max,avg= 3.1685843E-01 7.7139230E-01   0.000E+00  0.000E+00  0.000E+00 e/A
 length scales=  7.762431680422  7.762431680422  7.762431680422 bohr
              =  4.107701928516  4.107701928516  4.107701928516 angstroms
 prteigrs : about to open file Cs2TiI6o_EIG
 Fermi (or HOMO) energy (hartree) =   0.13587   Average Vxc (hartree)=  -0.30765
 Eigenvalues (hartree) for nkpt=  10  k points:
 kpt#   1, nband= 92, wtk=  0.06250, kpt=  0.0625  0.0625  0.5000 (reduced coord)
  -1.68345   -1.68146   -1.68095   -1.67987   -1.67948   -1.67891   -1.67868   -1.67829
  -1.67755   -1.67739   -1.67665   -1.67644   -1.67625   -1.67489   -1.67447   -1.67413
  -1.67257   -1.67197   -1.66892   -1.66807   -1.65461   -1.65457   -1.65451   -1.65380
  -1.65259   -1.65133   -1.64996   -1.64970   -1.64955   -1.64858   -0.67663   -0.67503
  -0.67460   -0.67440   -0.67404   -0.67399   -0.67358   -0.67335   -0.67292   -0.67282
  -0.66870   -0.66861   -0.66755   -0.66725   -0.66723   -0.66701   -0.66695   -0.66688
  -0.66612   -0.66607   -0.66602   -0.66591   -0.66591   -0.66582   -0.66574   -0.66564
  -0.66551   -0.66521   -0.66508   -0.66492   -0.42929   -0.41720   -0.40100   -0.38083
  -0.36145   -0.35753   -0.14589   -0.14359   -0.12014   -0.11658   -0.08451   -0.08151
  -0.05570   -0.04198   -0.03490   -0.02772   -0.01303   -0.01208   -0.00980    0.00621
   0.01089    0.02355    0.02948    0.03001    0.03559    0.04129    0.05393    0.05569
   0.09490    0.10622    0.19092    0.21199
 prteigrs : prtvol=0 or 1, do not print more k-points.


--- !EnergyTerms
iteration_state     : {dtset: 1, }
comment             : Components of total free energy in Hartree
kinetic             :  7.29525224574257E+02
hartree             :  1.35275066492300E+03
xc                  : -2.75219026741851E+02
Ewald energy        :  3.78792207126847E+02
psp_core            :  2.56955154413236E+01
local_psp           : -2.97487970493354E+03
non_local_psp       : -4.30143469179052E+02
VdWaals_dft_d       : -1.62622765774272E-01
total_energy        : -1.19364121155479E+03
...


--- !EnergyTermsDC
iteration_state     : {dtset: 1, }
comment             : '"Double-counting" decomposition of free energy'
band_energy         : -1.45760727230350E+02
Ewald energy        :  3.78792207126847E+02
psp_core            :  2.56955154413236E+01
xc_dc               : -1.45220563027468E+03
VdWaals_dft_d       : -1.62622765774272E-01
total_energy_dc     : -1.19364125770263E+03
...


 Cartesian components of stress tensor (hartree/bohr^3)
  sigma(1 1)=  1.31400578E-02  sigma(3 2)=  0.00000000E+00
  sigma(2 2)=  1.31400578E-02  sigma(3 1)=  0.00000000E+00
  sigma(3 3)=  1.28837268E-02  sigma(2 1)=  0.00000000E+00

-Cartesian components of stress tensor (GPa)         [Pressure= -3.8408E+02 GPa]
- sigma(1 1)=  3.86593782E+02  sigma(3 2)=  0.00000000E+00
- sigma(2 2)=  3.86593782E+02  sigma(3 1)=  0.00000000E+00
- sigma(3 3)=  3.79052265E+02  sigma(2 1)=  0.00000000E+00

== END DATASET(S) ==============================================================
================================================================================
  
 -outvars: echo values of variables after computation  --------
            acell      7.7624316804E+00  7.7624316804E+00  7.7624316804E+00 Bohr
              amu      1.18710000E+02  7.89600000E+01
           diemac      1.20000000E+01
             ecut      2.25000000E+01 Hartree
           etotal     -1.1936412577E+03
            fcart     -8.7228543605E-31 -1.3550065026E-30 -1.2836443292E-02
                       1.4396944090E-31  2.7100130052E-31 -1.3357975407E-02
                       4.4884590399E-31  2.7100130052E-31  4.4459215861E-03
                       1.4396944090E-31  2.7100130052E-31 -4.4459215861E-03
                       5.5047139168E-31  2.7100130052E-31  1.3357975407E-02
                       1.4396944090E-31  2.7100130052E-31  1.2836443292E-02
                       1.4396944090E-31  2.7100130052E-31 -1.5001193112E-02
                      -2.6253250988E-31  2.7100130052E-31 -9.5744356341E-03
                       1.4396944090E-31  2.7100130052E-31  1.9401332271E-03
                       1.4396944090E-31  2.7100130052E-31 -1.9401332271E-03
                       1.4396944090E-31  2.7100130052E-31  9.5744356341E-03
                      -8.7228543605E-31 -1.3550065026E-30  1.5001193112E-02
-          fftalg         112
             iscf          17
              ixc          11
              kpt      6.25000000E-02  6.25000000E-02  5.00000000E-01
                       1.87500000E-01  6.25000000E-02  5.00000000E-01
                       3.12500000E-01  6.25000000E-02  5.00000000E-01
                       4.37500000E-01  6.25000000E-02  5.00000000E-01
                       1.87500000E-01  1.87500000E-01  5.00000000E-01
                       3.12500000E-01  1.87500000E-01  5.00000000E-01
                       4.37500000E-01  1.87500000E-01  5.00000000E-01
                       3.12500000E-01  3.12500000E-01  5.00000000E-01
                       4.37500000E-01  3.12500000E-01  5.00000000E-01
                       4.37500000E-01  4.37500000E-01  5.00000000E-01
         kptrlatt        8    0    0      0    8    0      0    0    1
          kptrlen      6.20994534E+01
P           mkmem           2
            natom          12
            nband          92
            ngfft          36      36     192
             nkpt          10
            nstep         150
             nsym          16
           ntypat           2
              occ      2.000000  2.000000  2.000000  2.000000  2.000000  2.000000
                       2.000000  2.000000  2.000000  2.000000  2.000000  2.000000
                       2.000000  2.000000  2.000000  2.000000  2.000000  2.000000
                       2.000000  2.000000  2.000000  2.000000  2.000000  2.000000
                       2.000000  2.000000  2.000000  2.000000  2.000000  2.000000
                       2.000000  2.000000  2.000000  2.000000  2.000000  2.000000
                       2.000000  2.000000  2.000000  2.000000  2.000000  2.000000
                       2.000000  2.000000  2.000000  2.000000  2.000000  2.000000
                       2.000000  2.000000  2.000000  2.000000  2.000000  2.000000
                       2.000000  2.000000  2.000000  2.000000  2.000000  2.000000
                       2.000000  2.000000  2.000000  2.000000  2.000000  2.000000
                       2.000000  2.000000  2.000000  2.000000  2.000000  2.000000
                       2.000000  2.000000  2.000000  2.000000  2.000000  2.000000
                       2.000000  2.000000  2.000000  2.000000  2.000000  2.000000
                       2.000000  2.000000  2.000000  2.000000  2.000000  2.000000
                       0.000000  0.000000
           prtcif           1
            rprim      1.0000000000E+00  0.0000000000E+00  0.0000000000E+00
                       0.0000000000E+00  1.0000000000E+00  0.0000000000E+00
                       0.0000000000E+00  0.0000000000E+00  5.5880443615E+00
           shiftk      5.00000000E-01  5.00000000E-01  5.00000000E-01
          spgroup         129
           strten      1.3140057798E-02  1.3140057798E-02  1.2883726796E-02
                       0.0000000000E+00  0.0000000000E+00  0.0000000000E+00
           symrel      1  0  0   0  1  0   0  0  1      -1  0  0   0 -1  0   0  0 -1
                      -1  0  0   0  1  0   0  0 -1       1  0  0   0 -1  0   0  0  1
                      -1  0  0   0 -1  0   0  0  1       1  0  0   0  1  0   0  0 -1
                       1  0  0   0 -1  0   0  0 -1      -1  0  0   0  1  0   0  0  1
                       0  1  0   1  0  0   0  0  1       0 -1  0  -1  0  0   0  0 -1
                       0 -1  0   1  0  0   0  0 -1       0  1  0  -1  0  0   0  0  1
                       0 -1  0  -1  0  0   0  0  1       0  1  0   1  0  0   0  0 -1
                       0  1  0  -1  0  0   0  0 -1       0 -1  0   1  0  0   0  0  1
            tnons      0.0000000  0.0000000  0.0000000     0.5000000  0.5000000 -0.0000000
                       0.5000000  0.5000000 -0.0000000     0.0000000  0.0000000  0.0000000
                      -0.0000000  0.0000000  0.0000000     0.5000000  0.5000000 -0.0000000
                       0.5000000  0.5000000 -0.0000000    -0.0000000  0.0000000  0.0000000
                       0.5000000  0.5000000  0.0000000     0.0000000 -0.0000000 -0.0000000
                       0.0000000 -0.0000000 -0.0000000     0.5000000  0.5000000  0.0000000
                       0.5000000  0.5000000  0.0000000     0.0000000  0.0000000 -0.0000000
                       0.0000000  0.0000000 -0.0000000     0.5000000  0.5000000  0.0000000
           toldfe      1.00000000E-06 Hartree
            typat      1  1  1  1  1  1  2  2  2  2  2  2
           vdw_xc           5
              wtk        0.06250    0.12500    0.12500    0.12500    0.06250    0.12500
                         0.12500    0.06250    0.12500    0.06250
           xangst      2.0538509643E+00  0.0000000000E+00  4.6664605720E+00
                       0.0000000000E+00  2.0538509643E+00  7.4160997457E+00
                       2.0538509643E+00  0.0000000000E+00  1.0102202190E+01
                       0.0000000000E+00  2.0538509643E+00  1.2851818410E+01
                       2.0538509643E+00  0.0000000000E+00  1.5537920855E+01
                       0.0000000000E+00  2.0538509643E+00  1.8287560029E+01
                       0.0000000000E+00  2.0538509643E+00  4.6982289365E+00
                       2.0538509643E+00  0.0000000000E+00  7.3843313812E+00
                       0.0000000000E+00  2.0538509643E+00  1.0133970555E+01
                       2.0538509643E+00  0.0000000000E+00  1.2820050046E+01
                       0.0000000000E+00  2.0538509643E+00  1.5569689219E+01
                       2.0538509643E+00  0.0000000000E+00  1.8255791664E+01
            xcart      3.8812158402E+00  0.0000000000E+00  8.8183324910E+00
                       0.0000000000E+00  3.8812158402E+00  1.4014397494E+01
                       3.8812158402E+00  0.0000000000E+00  1.9090395479E+01
                       0.0000000000E+00  3.8812158402E+00  2.4286417105E+01
                       3.8812158402E+00  0.0000000000E+00  2.9362415090E+01
                       0.0000000000E+00  3.8812158402E+00  3.4558480093E+01
                       0.0000000000E+00  3.8812158402E+00  8.8783659996E+00
                       3.8812158402E+00  0.0000000000E+00  1.3954363985E+01
                       0.0000000000E+00  3.8812158402E+00  1.9150428988E+01
                       3.8812158402E+00  0.0000000000E+00  2.4226383596E+01
                       0.0000000000E+00  3.8812158402E+00  2.9422448599E+01
                       3.8812158402E+00  0.0000000000E+00  3.4498446584E+01
             xred      5.0000000000E-01  0.0000000000E+00  2.0329600000E-01
                       0.0000000000E+00  5.0000000000E-01  3.2308500000E-01
                       5.0000000000E-01  0.0000000000E+00  4.4010600000E-01
                       0.0000000000E+00  5.0000000000E-01  5.5989400000E-01
                       5.0000000000E-01  0.0000000000E+00  6.7691500000E-01
                       0.0000000000E+00  5.0000000000E-01  7.9670400000E-01
                       0.0000000000E+00  5.0000000000E-01  2.0468000000E-01
                       5.0000000000E-01  0.0000000000E+00  3.2170100000E-01
                       0.0000000000E+00  5.0000000000E-01  4.4149000000E-01
                       5.0000000000E-01  0.0000000000E+00  5.5851000000E-01
                       0.0000000000E+00  5.0000000000E-01  6.7829900000E-01
                       5.0000000000E-01  0.0000000000E+00  7.9532000000E-01
            znucl       50.00000   34.00000

================================================================================


- Timing analysis has been suppressed with timopt=0



================================================================================

 Suggested references for the acknowledgment of ABINIT usage.

 The users of ABINIT have little formal obligations with respect to the ABINIT group
 (those specified in the GNU General Public License, http://www.gnu.org/copyleft/gpl.txt).
 However, it is common practice in the scientific literature,
 to acknowledge the efforts of people that have made the research possible.
 In this spirit, please find below suggested citations of work written by ABINIT developers,
 corresponding to implementations inside of ABINIT that you have used in the present run.
 Note also that it will be of great value to readers of publications presenting these results,
 to read papers enabling them to understand the theoretical formalism and details
 of the ABINIT implementation.
 For information on why they are suggested, see also https://docs.abinit.org/theory/acknowledgments.
-
- [1] The Abinit project: Impact, environment and recent developments.
- Computer Phys. Comm. 248, 107042 (2020).
- X.Gonze, B. Amadon, G. Antonius, F.Arnardi, L.Baguet, J.-M.Beuken,
- J.Bieder, F.Bottin, J.Bouchet, E.Bousquet, N.Brouwer, F.Bruneval,
- G.Brunin, T.Cavignac, J.-B. Charraud, Wei Chen, M.Cote, S.Cottenier,
- J.Denier, G.Geneste, Ph.Ghosez, M.Giantomassi, Y.Gillet, O.Gingras,
- D.R.Hamann, G.Hautier, Xu He, N.Helbig, N.Holzwarth, Y.Jia, F.Jollet,
- W.Lafargue-Dit-Hauret, K.Lejaeghere, M.A.L.Marques, A.Martin, C.Martins,
- H.P.C. Miranda, F.Naccarato, K. Persson, G.Petretto, V.Planes, Y.Pouillon,
- S.Prokhorenko, F.Ricci, G.-M.Rignanese, A.H.Romero, M.M.Schmitt, M.Torrent,
- M.J.van Setten, B.Van Troeye, M.J.Verstraete, G.Zerah and J.W.Zwanzig
- Comment: the fifth generic paper describing the ABINIT project.
- Note that a version of this paper, that is not formatted for Computer Phys. Comm. 
- is available at https://www.abinit.org/sites/default/files/ABINIT20.pdf .
- The licence allows the authors to put it on the Web.
- DOI and bibtex: see https://docs.abinit.org/theory/bibliography/#gonze2020
-
- [2] Optimized norm-conserving Vanderbilt pseudopotentials.
- D.R. Hamann, Phys. Rev. B 88, 085117 (2013).
- Comment: Some pseudopotential generated using the ONCVPSP code were used.
- DOI and bibtex: see https://docs.abinit.org/theory/bibliography/#hamann2013
-
- [3] ABINIT: Overview, and focus on selected capabilities
- J. Chem. Phys. 152, 124102 (2020).
- A. Romero, D.C. Allan, B. Amadon, G. Antonius, T. Applencourt, L.Baguet,
- J.Bieder, F.Bottin, J.Bouchet, E.Bousquet, F.Bruneval,
- G.Brunin, D.Caliste, M.Cote,
- J.Denier, C. Dreyer, Ph.Ghosez, M.Giantomassi, Y.Gillet, O.Gingras,
- D.R.Hamann, G.Hautier, F.Jollet, G. Jomard,
- A.Martin, 
- H.P.C. Miranda, F.Naccarato, G.Petretto, N.A. Pike, V.Planes,
- S.Prokhorenko, T. Rangel, F.Ricci, G.-M.Rignanese, M.Royo, M.Stengel, M.Torrent,
- M.J.van Setten, B.Van Troeye, M.J.Verstraete, J.Wiktor, J.W.Zwanziger, and X.Gonze.
- Comment: a global overview of ABINIT, with focus on selected capabilities .
- Note that a version of this paper, that is not formatted for J. Chem. Phys 
- is available at https://www.abinit.org/sites/default/files/ABINIT20_JPC.pdf .
- The licence allows the authors to put it on the Web.
- DOI and bibtex: see https://docs.abinit.org/theory/bibliography/#romero2020
-
- [4] Recent developments in the ABINIT software package.
- Computer Phys. Comm. 205, 106 (2016).
- X.Gonze, F.Jollet, F.Abreu Araujo, D.Adams, B.Amadon, T.Applencourt,
- C.Audouze, J.-M.Beuken, J.Bieder, A.Bokhanchuk, E.Bousquet, F.Bruneval
- D.Caliste, M.Cote, F.Dahm, F.Da Pieve, M.Delaveau, M.Di Gennaro,
- B.Dorado, C.Espejo, G.Geneste, L.Genovese, A.Gerossier, M.Giantomassi,
- Y.Gillet, D.R.Hamann, L.He, G.Jomard, J.Laflamme Janssen, S.Le Roux,
- A.Levitt, A.Lherbier, F.Liu, I.Lukacevic, A.Martin, C.Martins,
- M.J.T.Oliveira, S.Ponce, Y.Pouillon, T.Rangel, G.-M.Rignanese,
- A.H.Romero, B.Rousseau, O.Rubel, A.A.Shukri, M.Stankovski, M.Torrent,
- M.J.Van Setten, B.Van Troeye, M.J.Verstraete, D.Waroquier, J.Wiktor,
- B.Xu, A.Zhou, J.W.Zwanziger.
- Comment: the fourth generic paper describing the ABINIT project.
- Note that a version of this paper, that is not formatted for Computer Phys. Comm. 
- is available at https://www.abinit.org/sites/default/files/ABINIT16.pdf .
- The licence allows the authors to put it on the Web.
- DOI and bibtex: see https://docs.abinit.org/theory/bibliography/#gonze2016
-
- And optionally:
-
- [5] ABINIT: First-principles approach of materials and nanosystem properties.
- Computer Phys. Comm. 180, 2582-2615 (2009).
- X. Gonze, B. Amadon, P.-M. Anglade, J.-M. Beuken, F. Bottin, P. Boulanger, F. Bruneval,
- D. Caliste, R. Caracas, M. Cote, T. Deutsch, L. Genovese, Ph. Ghosez, M. Giantomassi
- S. Goedecker, D.R. Hamann, P. Hermet, F. Jollet, G. Jomard, S. Leroux, M. Mancini, S. Mazevet,
- M.J.T. Oliveira, G. Onida, Y. Pouillon, T. Rangel, G.-M. Rignanese, D. Sangalli, R. Shaltaf,
- M. Torrent, M.J. Verstraete, G. Zerah, J.W. Zwanziger
- Comment: the third generic paper describing the ABINIT project.
- Note that a version of this paper, that is not formatted for Computer Phys. Comm. 
- is available at https://www.abinit.org/sites/default/files/ABINIT_CPC_v10.pdf .
- The licence allows the authors to put it on the Web.
- DOI and bibtex: see https://docs.abinit.org/theory/bibliography/#gonze2009
-
- Proc.   0 individual time (sec): cpu=        478.1  wall=        478.1

================================================================================

 Calculation completed.
.Delivered   0 WARNINGs and   0 COMMENTs to log file.
+Overall time at end (sec) : cpu=       2868.3  wall=       2868.4
