
.Version 9.2.2 of ABINIT 
.(MPI version, prepared for a x86_64_linux_gnu9.3 computer) 

.Copyright (C) 1998-2020 ABINIT group . 
 ABINIT comes with ABSOLUTELY NO WARRANTY.
 It is free software, and you are welcome to redistribute it
 under certain conditions (GNU General Public License,
 see ~abinit/COPYING or http://www.gnu.org/copyleft/gpl.txt).

 ABINIT is a project of the Universite Catholique de Louvain,
 Corning Inc. and other collaborators, see ~abinit/doc/developers/contributors.txt .
 Please read https://docs.abinit.org/theory/acknowledgments for suggested
 acknowledgments of the ABINIT effort.
 For more information, see https://www.abinit.org .

.Starting date : Sat 16 Mar 2024.
- ( at 22h08 )
  
- The starting date is more than 3 years after the initial release
- of this version of ABINIT, namely Nov 2020.
- This version of ABINIT is not supported anymore.
- Action: please, switch to a more recent version of ABINIT.
- input  file    -> Cs2TiI6.in
- output file    -> Cs2TiI6.out
- root for input  files -> Cs2TiI6i
- root for output files -> Cs2TiI6o


 DATASET    1 : space group P4 m m (# 99); Bravais tP (primitive tetrag.)
================================================================================
 Values of the parameters that define the memory need for DATASET  1.
     intxc =       0    ionmov =       0      iscf =      17    lmnmax =       6
     lnmax =       6     mgfft =     192  mpssoang =       3    mqgrid =    9494
     natom =      12  nloc_mem =       1    nspden =       1   nspinor =       1
    nsppol =       1      nsym =       8    n1xccc =    2501    ntypat =       3
    occopt =       1   xclevel =       2
-    mband =         105        mffmem =           1         mkmem =           2
       mpw =       13696          nfft =      248832          nkpt =          10
================================================================================
P This job should need less than                     133.907 Mbytes of memory.
  Rough estimation (10% accuracy) of disk space for files :
_ WF disk file :    219.436 Mbytes ; DEN or POT disk file :      1.900 Mbytes.
================================================================================


 DATASET    2 : space group P4 m m (# 99); Bravais tP (primitive tetrag.)
================================================================================
 Values of the parameters that define the memory need for DATASET  2.
     intxc =       0    ionmov =       0      iscf =      -2    lmnmax =       6
     lnmax =       6     mgfft =     192  mpssoang =       3    mqgrid =    9494
     natom =      12  nloc_mem =       1    nspden =       1   nspinor =       1
    nsppol =       1      nsym =       8    n1xccc =    2501    ntypat =       3
    occopt =       1   xclevel =       2
-    mband =         105        mffmem =           1         mkmem =          10
       mpw =       13759          nfft =      248832          nkpt =          57
================================================================================
P This job should need less than                     273.869 Mbytes of memory.
  Rough estimation (10% accuracy) of disk space for files :
_ WF disk file :   1256.527 Mbytes ; DEN or POT disk file :      1.900 Mbytes.
================================================================================


 DATASET    3 : space group P4 m m (# 99); Bravais tP (primitive tetrag.)
================================================================================
 Values of the parameters that define the memory need for DATASET  3.
     intxc =       0    ionmov =       0      iscf =      -3    lmnmax =       6
     lnmax =       6     mgfft =     192  mpssoang =       3    mqgrid =    9494
     natom =      12  nloc_mem =       1    nspden =       1   nspinor =       1
    nsppol =       1      nsym =       8    n1xccc =    2501    ntypat =       3
    occopt =       1   xclevel =       2
-    mband =         105        mffmem =           1         mkmem =           2
       mpw =       13696          nfft =      248832          nkpt =          10
================================================================================
P This job should need less than                      95.938 Mbytes of memory.
  Rough estimation (10% accuracy) of disk space for files :
_ WF disk file :    219.436 Mbytes ; DEN or POT disk file :      1.900 Mbytes.
================================================================================

--------------------------------------------------------------------------------
------------- Echo of variables that govern the present computation ------------
--------------------------------------------------------------------------------
-
- outvars: echo of selected default values                                      
-   iomode0 =  0 , fftalg0 =112 , wfoptalg0 =  0
-
- outvars: echo of global parameters not present in the input file              
-  max_nthreads =    0
-
 -outvars: echo values of preprocessed input variables --------
            acell      7.7624316804E+00  7.7624316804E+00  7.7624316804E+00 Bohr
              amu      1.18710000E+02  7.89600000E+01  6.53900000E+01
           diemac      1.20000000E+01
        dosdeltae1     0.00000000E+00 Hartree
        dosdeltae2     0.00000000E+00 Hartree
        dosdeltae3     1.00000000E-03 Hartree
             ecut      2.25000000E+01 Hartree
-          fftalg         112
           getden1          0
           getden2          1
           getden3          1
           getwfk1          0
           getwfk2          0
           getwfk3          1
           iatsph3       1    5   10   11
             iscf1         17
             iscf2         -2
             iscf3         -3
           istwfk2       7    0    0    0    0    0    0    0    0    0
                         4    0    0    0    0    0    0    0    0    0
                         0    0    2    0    0    0    0    0    0    0
                         0    0    0    0    0    0    0    0    0    0
                         9    0    0    0    0    0    0    0    8    0
              ixc     -101130
           jdtset        1    2    3
              kpt1     6.25000000E-02  6.25000000E-02  5.00000000E-01
                       1.87500000E-01  6.25000000E-02  5.00000000E-01
                       3.12500000E-01  6.25000000E-02  5.00000000E-01
                       4.37500000E-01  6.25000000E-02  5.00000000E-01
                       1.87500000E-01  1.87500000E-01  5.00000000E-01
                       3.12500000E-01  1.87500000E-01  5.00000000E-01
                       4.37500000E-01  1.87500000E-01  5.00000000E-01
                       3.12500000E-01  3.12500000E-01  5.00000000E-01
                       4.37500000E-01  3.12500000E-01  5.00000000E-01
                       4.37500000E-01  4.37500000E-01  5.00000000E-01
              kpt2     5.00000000E-01  5.00000000E-01  0.00000000E+00
                       4.50000000E-01  4.50000000E-01  5.00000000E-02
                       4.00000000E-01  4.00000000E-01  1.00000000E-01
                       3.50000000E-01  3.50000000E-01  1.50000000E-01
                       3.00000000E-01  3.00000000E-01  2.00000000E-01
                       2.50000000E-01  2.50000000E-01  2.50000000E-01
                       2.00000000E-01  2.00000000E-01  3.00000000E-01
                       1.50000000E-01  1.50000000E-01  3.50000000E-01
                       1.00000000E-01  1.00000000E-01  4.00000000E-01
                       5.00000000E-02  5.00000000E-02  4.50000000E-01
                       0.00000000E+00  0.00000000E+00  5.00000000E-01
                       0.00000000E+00  0.00000000E+00  4.58333333E-01
                       0.00000000E+00  0.00000000E+00  4.16666667E-01
                       0.00000000E+00  0.00000000E+00  3.75000000E-01
                       0.00000000E+00  0.00000000E+00  3.33333333E-01
                       0.00000000E+00  0.00000000E+00  2.91666667E-01
                       0.00000000E+00  0.00000000E+00  2.50000000E-01
                       0.00000000E+00  0.00000000E+00  2.08333333E-01
                       0.00000000E+00  0.00000000E+00  1.66666667E-01
                       0.00000000E+00  0.00000000E+00  1.25000000E-01
                       0.00000000E+00  0.00000000E+00  8.33333333E-02
                       0.00000000E+00  0.00000000E+00  4.16666667E-02
                       0.00000000E+00  0.00000000E+00  0.00000000E+00
                       2.77777778E-02  2.77777778E-02  2.77777778E-02
                       5.55555556E-02  5.55555556E-02  5.55555556E-02
                       8.33333333E-02  8.33333333E-02  8.33333333E-02
                       1.11111111E-01  1.11111111E-01  1.11111111E-01
                       1.38888889E-01  1.38888889E-01  1.38888889E-01
                       1.66666667E-01  1.66666667E-01  1.66666667E-01
                       1.94444444E-01  1.94444444E-01  1.94444444E-01
                       2.22222222E-01  2.22222222E-01  2.22222222E-01
                       2.50000000E-01  2.50000000E-01  2.50000000E-01
                       2.77777778E-01  2.77777778E-01  2.77777778E-01
                       3.05555556E-01  3.05555556E-01  3.05555556E-01
                       3.33333333E-01  3.33333333E-01  3.33333333E-01
                       3.61111111E-01  3.61111111E-01  3.61111111E-01
                       3.88888889E-01  3.88888889E-01  3.88888889E-01
                       4.16666667E-01  4.16666667E-01  4.16666667E-01
                       4.44444444E-01  4.44444444E-01  4.44444444E-01
                       4.72222222E-01  4.72222222E-01  4.72222222E-01
                       5.00000000E-01  5.00000000E-01  5.00000000E-01
                       4.37500000E-01  5.00000000E-01  5.00000000E-01
                       3.75000000E-01  5.00000000E-01  5.00000000E-01
                       3.12500000E-01  5.00000000E-01  5.00000000E-01
                       2.50000000E-01  5.00000000E-01  5.00000000E-01
                       1.87500000E-01  5.00000000E-01  5.00000000E-01
                       1.25000000E-01  5.00000000E-01  5.00000000E-01
                       6.25000000E-02  5.00000000E-01  5.00000000E-01
                       0.00000000E+00  5.00000000E-01  5.00000000E-01
                       0.00000000E+00  5.00000000E-01  4.37500000E-01
              kpt3     6.25000000E-02  6.25000000E-02  5.00000000E-01
                       1.87500000E-01  6.25000000E-02  5.00000000E-01
                       3.12500000E-01  6.25000000E-02  5.00000000E-01
                       4.37500000E-01  6.25000000E-02  5.00000000E-01
                       1.87500000E-01  1.87500000E-01  5.00000000E-01
                       3.12500000E-01  1.87500000E-01  5.00000000E-01
                       4.37500000E-01  1.87500000E-01  5.00000000E-01
                       3.12500000E-01  3.12500000E-01  5.00000000E-01
                       4.37500000E-01  3.12500000E-01  5.00000000E-01
                       4.37500000E-01  4.37500000E-01  5.00000000E-01
                       outvar_i_n : Printing only first  50 k-points.
           kptopt1          1
           kptopt2         -5
           kptopt3          1
         kptrlatt        8    0    0      0    8    0      0    0    1
          kptrlen1     6.20994534E+01
          kptrlen2     3.00000000E+01
          kptrlen3     6.20994534E+01
P           mkmem1          2
P           mkmem2         10
P           mkmem3          2
            natom          12
           natsph3       4
            nband1        105
            nband2        105
            nband3        105
           nbdbuf1          0
           nbdbuf2          2
           nbdbuf3          2
           ndtset           3
            ngfft          36      36     192
             nkpt1         10
             nkpt2         57
             nkpt3         10
            nstep1       1000
            nstep2        300
            nstep3        300
             nsym           8
           ntypat           3
              occ      2.000000  2.000000  2.000000  2.000000  2.000000  2.000000
                       2.000000  2.000000  2.000000  2.000000  2.000000  2.000000
                       2.000000  2.000000  2.000000  2.000000  2.000000  2.000000
                       2.000000  2.000000  2.000000  2.000000  2.000000  2.000000
                       2.000000  2.000000  2.000000  2.000000  2.000000  2.000000
                       2.000000  2.000000  2.000000  2.000000  2.000000  2.000000
                       2.000000  2.000000  2.000000  2.000000  2.000000  2.000000
                       2.000000  2.000000  2.000000  2.000000  2.000000  2.000000
                       2.000000  2.000000  2.000000  2.000000  2.000000  2.000000
                       2.000000  2.000000  2.000000  2.000000  2.000000  2.000000
                       2.000000  2.000000  2.000000  2.000000  2.000000  2.000000
                       2.000000  2.000000  2.000000  2.000000  2.000000  2.000000
                       2.000000  2.000000  2.000000  2.000000  2.000000  2.000000
                       2.000000  2.000000  2.000000  2.000000  2.000000  2.000000
                       2.000000  2.000000  2.000000  2.000000  2.000000  2.000000
                       2.000000  2.000000  2.000000  2.000000  2.000000  2.000000
                       0.000000  0.000000  0.000000  0.000000  0.000000  0.000000
                       0.000000  0.000000  0.000000
           prtcif           1
           prtdos1          0
           prtdos2          0
           prtdos3          3
            rprim      1.0000000000E+00  0.0000000000E+00  0.0000000000E+00
                       0.0000000000E+00  1.0000000000E+00  0.0000000000E+00
                       0.0000000000E+00  0.0000000000E+00  5.7277782079E+00
           shiftk      5.00000000E-01  5.00000000E-01  5.00000000E-01
          spgroup          99
           symrel      1  0  0   0  1  0   0  0  1       1  0  0   0 -1  0   0  0  1
                      -1  0  0   0 -1  0   0  0  1      -1  0  0   0  1  0   0  0  1
                       0  1  0   1  0  0   0  0  1       0  1  0  -1  0  0   0  0  1
                       0 -1  0  -1  0  0   0  0  1       0 -1  0   1  0  0   0  0  1
            tnons      0.0000000  0.0000000  0.0000000     0.0000000  0.0000000  0.0000000
                       0.0000000  0.0000000  0.0000000     0.0000000  0.0000000  0.0000000
                       0.5000000  0.5000000  0.0000000     0.5000000  0.5000000  0.0000000
                       0.5000000  0.5000000  0.0000000     0.5000000  0.5000000  0.0000000
           tolwfr      1.00000000E-20
            typat      1  1  1  1  2  2  2  2  2  2  3  3
           vdw_xc           5
              wtk1       0.06250    0.12500    0.12500    0.12500    0.06250    0.12500
                         0.12500    0.06250    0.12500    0.06250
              wtk2       1.00000    1.00000    1.00000    1.00000    1.00000    1.00000
                         1.00000    1.00000    1.00000    1.00000    1.00000    1.00000
                         1.00000    1.00000    1.00000    1.00000    1.00000    1.00000
                         1.00000    1.00000    1.00000    1.00000    1.00000    1.00000
                         1.00000    1.00000    1.00000    1.00000    1.00000    1.00000
                         1.00000    1.00000    1.00000    1.00000    1.00000    1.00000
                         1.00000    1.00000    1.00000    1.00000    1.00000    1.00000
                         1.00000    1.00000    1.00000    1.00000    1.00000    1.00000
                         1.00000    1.00000
              wtk3       0.06250    0.12500    0.12500    0.12500    0.06250    0.12500
                         0.12500    0.06250    0.12500    0.06250
                       outvars : Printing only first  50 k-points.
           xangst      2.0538509643E+00  0.0000000000E+00  4.6664740448E+00
                       0.0000000000E+00  2.0538509643E+00  7.4160979462E+00
                       2.0538509643E+00  0.0000000000E+00  1.0102196232E+01
                       0.0000000000E+00  2.0538509643E+00  1.2851820134E+01
                       0.0000000000E+00  2.0538509643E+00  4.6982368524E+00
                       2.0538509643E+00  0.0000000000E+00  7.3843351386E+00
                       0.0000000000E+00  2.0538509643E+00  1.0133959040E+01
                       2.0538509643E+00  0.0000000000E+00  1.2820057326E+01
                       2.0538509643E+00  0.0000000000E+00  1.5871522011E+01
                       0.0000000000E+00  2.0538509643E+00  1.8861531546E+01
                       2.0538509643E+00  2.0538509643E+00  1.7366538543E+01
                       0.0000000000E+00  0.0000000000E+00  1.7366538543E+01
            xcart      3.8812158402E+00  0.0000000000E+00  8.8183579509E+00
                       0.0000000000E+00  3.8812158402E+00  1.4014394093E+01
                       3.8812158402E+00  0.0000000000E+00  1.9090384220E+01
                       0.0000000000E+00  3.8812158402E+00  2.4286420362E+01
                       0.0000000000E+00  3.8812158402E+00  8.8783809584E+00
                       3.8812158402E+00  0.0000000000E+00  1.3954371085E+01
                       0.0000000000E+00  3.8812158402E+00  1.9150407227E+01
                       3.8812158402E+00  0.0000000000E+00  2.4226397354E+01
                       3.8812158402E+00  0.0000000000E+00  2.9992829913E+01
                       0.0000000000E+00  3.8812158402E+00  3.5643129068E+01
                       3.8812158402E+00  3.8812158402E+00  3.2818001722E+01
                       0.0000000000E+00  0.0000000000E+00  3.2818001722E+01
             xred      5.0000000000E-01  0.0000000000E+00  1.9833700000E-01
                       0.0000000000E+00  5.0000000000E-01  3.1520300000E-01
                       5.0000000000E-01  0.0000000000E+00  4.2936900000E-01
                       0.0000000000E+00  5.0000000000E-01  5.4623500000E-01
                       0.0000000000E+00  5.0000000000E-01  1.9968700000E-01
                       5.0000000000E-01  0.0000000000E+00  3.1385300000E-01
                       0.0000000000E+00  5.0000000000E-01  4.3071900000E-01
                       5.0000000000E-01  0.0000000000E+00  5.4488500000E-01
                       5.0000000000E-01  0.0000000000E+00  6.7458000000E-01
                       0.0000000000E+00  5.0000000000E-01  8.0166300000E-01
                       5.0000000000E-01  5.0000000000E-01  7.3812200000E-01
                       0.0000000000E+00  0.0000000000E+00  7.3812200000E-01
            znucl       50.00000   34.00000   30.00000

================================================================================

 chkinp: Checking input parameters for consistency, jdtset=   1.

 chkinp: Checking input parameters for consistency, jdtset=   2.

 chkinp: Checking input parameters for consistency, jdtset=   3.

================================================================================
== DATASET  1 ==================================================================
-   mpi_nproc: 6, omp_nthreads: -1 (-1 if OMP is not activated)


--- !DatasetInfo
iteration_state: {dtset: 1, }
dimensions: {natom: 12, nkpt: 10, mband: 105, nsppol: 1, nspinor: 1, nspden: 1, mpw: 13696, }
cutoff_energies: {ecut:  22.5, pawecutdg:  -1.0, }
electrons: {nelect:   1.92000000E+02, charge:   0.00000000E+00, occopt:   1.00000000E+00, tsmear:   1.00000000E-02, }
meta: {optdriver: 0, ionmov: 0, optcell: 0, iscf: 17, paral_kgb: 0, }
...

 Real(R)+Recip(G) space primitive vectors, cartesian coordinates (Bohr,Bohr^-1):
 R(1)=  7.7624317  0.0000000  0.0000000  G(1)=  0.1288256  0.0000000  0.0000000
 R(2)=  0.0000000  7.7624317  0.0000000  G(2)=  0.0000000  0.1288256  0.0000000
 R(3)=  0.0000000  0.0000000 44.4614870  G(3)=  0.0000000  0.0000000  0.0224914
 Unit cell volume ucvol=  2.6790423E+03 bohr^3
 Angles (23,13,12)=  9.00000000E+01  9.00000000E+01  9.00000000E+01 degrees

 getcut: wavevector=  0.0000  0.0000  0.0000  ngfft=  36  36 192
         ecut(hartree)=     22.500   => boxcut(ratio)=   2.02237

--- Pseudopotential description ------------------------------------------------
- pspini: atom type   1  psp file is ../../../Psps_for_tests/ATOMICDATA_NC/Sn.psp8
- pspatm: opening atomic psp file    ../../../Psps_for_tests/ATOMICDATA_NC/Sn.psp8
- Sn    ONCVPSP  r_core=  2.27  2.62  1.86
- 50.00000  14.00000    150810                znucl, zion, pspdat
    8   11    2    4       600   0.00000      pspcod,pspxc,lmax,lloc,mmax,r2well
    5.99000000000000    6.50000000000000    0.00000000000000   rchrg,fchrg,qchrg
     nproj     2     2     2
     extension_switch     1
  pspatm : epsatm=   32.65190642
         --- l  ekb(1:nproj) -->
             0    5.462393    0.682281
             1    4.443814    0.825686
             2   -5.382195   -1.704077
 pspatm: atomic psp has been read  and splines computed

- pspini: atom type   2  psp file is ../../../Psps_for_tests/ATOMICDATA_NC/Se.psp8
- pspatm: opening atomic psp file    ../../../Psps_for_tests/ATOMICDATA_NC/Se.psp8
- Se    ONCVPSP  r_core=  1.82  1.50  1.91
- 34.00000  16.00000    150729                znucl, zion, pspdat
    8   11    2    4       600   0.00000      pspcod,pspxc,lmax,lloc,mmax,r2well
    5.99000000000000    5.00000000000000    0.00000000000000   rchrg,fchrg,qchrg
     nproj     2     2     2
     extension_switch     1
  pspatm : epsatm=   29.53325930
         --- l  ekb(1:nproj) -->
             0    8.612261    0.939919
             1    6.984962    1.281898
             2   -9.322521   -3.856218
 pspatm: atomic psp has been read  and splines computed

- pspini: atom type   3  psp file is ../../../Psps_for_tests/ATOMICDATA_NC/Zn.psp8
- pspatm: opening atomic psp file    ../../../Psps_for_tests/ATOMICDATA_NC/Zn.psp8
- Zn    ONCVPSP  r_core=  1.36  1.66  1.85
- 30.00000  20.00000    161102                znucl, zion, pspdat
    8   11    2    4       600   0.00000      pspcod,pspxc,lmax,lloc,mmax,r2well
    5.99000000000000    2.50000000000000    0.00000000000000   rchrg,fchrg,qchrg
     nproj     2     2     2
     extension_switch     1
  pspatm : epsatm=   26.67245340
         --- l  ekb(1:nproj) -->
             0    2.404235   -1.533451
             1   -4.677427   -1.530630
             2   -7.000316   -2.622858
 pspatm: atomic psp has been read  and splines computed

   6.93412010E+04                                ecore*ucvol(ha*bohr**3)
--------------------------------------------------------------------------------

_setup2: Arith. and geom. avg. npw (full set) are   13658.875   13658.862

================================================================================

--- !BeginCycle
iteration_state: {dtset: 1, }
solver: {iscf: 17, nstep: 1000, nline: 4, wfoptalg: 0, }
tolerances: {tolwfr: 1.00E-20, }
...

     iter   Etot(hartree)      deltaE(h)  residm     nres2
 ETOT  1  -1437.5717860263    -1.438E+03 7.121E-01 1.736E+03
 ETOT  2  -1542.9133295538    -1.053E+02 4.810E-01 5.981E+03
 ETOT  3  -1442.4736960725     1.004E+02 9.861E+00 1.012E+03
 ETOT  4  -1457.5295467678    -1.506E+01 1.042E+00 8.559E+02
 ETOT  5  -1455.6385335946     1.891E+00 8.374E-01 4.584E+02
 ETOT  6  -1456.1030222234    -4.645E-01 3.297E-02 3.093E+02
 ETOT  7  -1454.1563527360     1.947E+00 1.895E-02 1.065E+02
 ETOT  8  -1453.0689945389     1.087E+00 2.281E-02 8.708E+00
 ETOT  9  -1453.0492434190     1.975E-02 5.043E-03 7.221E+00
 ETOT 10  -1452.9521591913     9.708E-02 2.990E-03 2.966E-01
 ETOT 11  -1452.9505413028     1.618E-03 3.621E-03 1.398E-01
 ETOT 12  -1452.9471233403     3.418E-03 3.523E-03 2.784E-02
 ETOT 13  -1452.9453441781     1.779E-03 1.806E-03 1.470E-02
 ETOT 14  -1452.9450578903     2.863E-04 2.279E-03 3.532E-03
 ETOT 15  -1452.9449003132     1.576E-04 1.301E-03 1.690E-03
 ETOT 16  -1452.9448143540     8.596E-05 2.804E-03 7.197E-04
 ETOT 17  -1452.9448121474     2.207E-06 1.119E-03 4.432E-04
 ETOT 18  -1452.9448523885    -4.024E-05 1.268E-03 1.539E-04
 ETOT 19  -1452.9449128529    -6.046E-05 2.613E-04 2.787E-05
 ETOT 20  -1452.9449409079    -2.806E-05 2.053E-04 2.990E-06
 ETOT 21  -1452.9449441418    -3.234E-06 8.340E-05 4.004E-07
 ETOT 22  -1452.9449443352    -1.934E-07 4.229E-05 1.167E-07
 ETOT 23  -1452.9449443924    -5.716E-08 7.090E-05 3.782E-08
 ETOT 24  -1452.9449444101    -1.777E-08 3.975E-05 1.184E-08
 ETOT 25  -1452.9449444178    -7.634E-09 5.683E-05 2.757E-09
 ETOT 26  -1452.9449444198    -2.063E-09 3.758E-05 5.126E-10
 ETOT 27  -1452.9449444202    -3.993E-10 4.362E-05 1.084E-10
 ETOT 28  -1452.9449444203    -6.594E-11 3.526E-05 4.378E-11
 ETOT 29  -1452.9449444202     9.436E-11 3.239E-05 2.718E-11
 ETOT 30  -1452.9449444203    -1.348E-10 3.263E-05 1.125E-11
 ETOT 31  -1452.9449444204    -5.571E-11 2.673E-05 1.885E-12
 ETOT 32  -1452.9449444204     2.160E-11 2.971E-05 3.704E-13
 ETOT 33  -1452.9449444203     9.527E-11 2.418E-05 6.119E-14
 ETOT 34  -1452.9449444203    -2.296E-11 2.662E-05 1.252E-14
 ETOT 35  -1452.9449444203    -2.046E-12 2.152E-05 5.302E-15
 ETOT 36  -1452.9449444205    -2.069E-10 2.349E-05 2.063E-15
 ETOT 37  -1452.9449444203     2.219E-10 1.887E-05 7.425E-16
 ETOT 38  -1452.9449444203     3.183E-11 2.043E-05 1.374E-16
 ETOT 39  -1452.9449444201     1.303E-10 1.633E-05 3.638E-17
 ETOT 40  -1452.9449444203    -2.040E-10 1.756E-05 1.183E-17
 ETOT 41  -1452.9449444204    -2.433E-11 1.397E-05 7.033E-18
 ETOT 42  -1452.9449444202     1.232E-10 1.492E-05 3.419E-18
 ETOT 43  -1452.9449444202     3.001E-11 1.183E-05 9.815E-19
 ETOT 44  -1452.9449444203    -1.203E-10 1.257E-05 6.255E-19
 ETOT 45  -1452.9449444202     9.004E-11 9.939E-06 1.648E-19
 ETOT 46  -1452.9449444202     3.297E-11 1.050E-05 4.099E-20
 ETOT 47  -1452.9449444202     1.137E-12 8.289E-06 2.468E-20
 ETOT 48  -1452.9449444202     2.137E-11 8.717E-06 7.993E-21
 ETOT 49  -1452.9449444202    -2.183E-11 6.871E-06 2.744E-21
 ETOT 50  -1452.9449444203    -6.548E-11 7.196E-06 2.917E-22
 ETOT 51  -1452.9449444202     4.616E-11 5.668E-06 1.840E-22
 ETOT 52  -1452.9449444202    -2.342E-11 5.914E-06 4.262E-23
 ETOT 53  -1452.9449444202     1.387E-11 4.657E-06 1.591E-23
 ETOT 54  -1452.9449444202    -5.230E-12 4.842E-06 3.397E-24
 ETOT 55  -1452.9449444202    -9.095E-12 3.814E-06 8.063E-25
 ETOT 56  -1452.9449444202    -9.095E-13 3.952E-06 3.627E-25
 ETOT 57  -1452.9449444202    -4.775E-12 3.114E-06 1.068E-25
 ETOT 58  -1452.9449444202     2.956E-12 3.218E-06 5.630E-26
 ETOT 59  -1452.9449444202     2.274E-13 2.538E-06 3.455E-26
 ETOT 60  -1452.9449444202    -4.547E-13 2.615E-06 2.112E-26
 ETOT 61  -1452.9449444202    -9.095E-13 2.064E-06 2.326E-26
 ETOT 62  -1452.9449444202     2.046E-12 2.122E-06 1.795E-26
 ETOT 63  -1452.9449444202     1.137E-12 1.676E-06 2.989E-26
 ETOT 64  -1452.9449444202    -1.592E-12 1.719E-06 2.204E-26
 ETOT 65  -1452.9449444202    -6.821E-13 1.360E-06 3.041E-26
 ETOT 66  -1452.9449444202     2.274E-13 1.392E-06 2.652E-26
 ETOT 67  -1452.9449444202     4.547E-13 1.102E-06 3.098E-26
 ETOT 68  -1452.9449444202    -6.821E-13 1.126E-06 3.776E-26
 ETOT 69  -1452.9449444202     2.274E-13 8.926E-07 4.452E-26
 ETOT 70  -1452.9449444202    -1.137E-12 9.096E-07 4.050E-26
 ETOT 71  -1452.9449444202     0.000E+00 7.224E-07 4.290E-26
 ETOT 72  -1452.9449444202    -9.095E-13 7.348E-07 3.517E-26
 ETOT 73  -1452.9449444202     4.547E-13 5.844E-07 3.159E-26
 ETOT 74  -1452.9449444202    -1.137E-12 5.933E-07 3.444E-26
 ETOT 75  -1452.9449444202     1.364E-12 4.725E-07 1.566E-26
 ETOT 76  -1452.9449444202    -1.592E-12 4.789E-07 1.187E-26
 ETOT 77  -1452.9449444202     1.364E-12 3.820E-07 1.169E-26
 ETOT 78  -1452.9449444202    -2.274E-13 3.865E-07 9.581E-27
 ETOT 79  -1452.9449444202    -1.137E-12 3.087E-07 9.437E-27
 ETOT 80  -1452.9449444202     4.547E-13 3.118E-07 8.320E-27
 ETOT 81  -1452.9449444202    -1.137E-12 2.494E-07 7.832E-27
 ETOT 82  -1452.9449444202     1.364E-12 2.516E-07 1.836E-26
 ETOT 83  -1452.9449444202    -1.592E-12 2.015E-07 1.115E-26
 ETOT 84  -1452.9449444202     9.095E-13 2.029E-07 1.427E-26
 ETOT 85  -1452.9449444202     4.547E-13 1.627E-07 8.802E-27
 ETOT 86  -1452.9449444202    -2.274E-13 1.637E-07 1.066E-26
 ETOT 87  -1452.9449444202    -1.364E-12 1.314E-07 1.029E-26
 ETOT 88  -1452.9449444202     1.592E-12 1.320E-07 9.585E-27
 ETOT 89  -1452.9449444202    -2.274E-12 1.062E-07 7.098E-27
 ETOT 90  -1452.9449444202     6.821E-13 1.065E-07 6.034E-27
 ETOT 91  -1452.9449444202     2.274E-13 8.573E-08 7.437E-27
 ETOT 92  -1452.9449444202     4.547E-13 8.587E-08 6.904E-27
 ETOT 93  -1452.9449444202    -4.547E-13 6.923E-08 7.424E-27
 ETOT 94  -1452.9449444202     0.000E+00 6.925E-08 6.724E-27
 ETOT 95  -1452.9449444202     2.274E-13 5.590E-08 1.221E-26
 ETOT 96  -1452.9449444202     0.000E+00 5.585E-08 6.471E-27
 ETOT 97  -1452.9449444202     0.000E+00 4.514E-08 8.985E-27
 ETOT 98  -1452.9449444202    -1.137E-12 4.505E-08 9.836E-27
 ETOT 99  -1452.9449444202     1.819E-12 3.645E-08 5.002E-27
 ETOT  100  -1452.9449444202    -4.547E-13 3.633E-08 1.138E-26
 ETOT  101  -1452.9449444202    -9.095E-13 2.943E-08 3.710E-26
 ETOT  102  -1452.9449444202    -2.274E-13 2.930E-08 7.292E-27
 ETOT  103  -1452.9449444202     6.821E-13 2.376E-08 1.879E-26
 ETOT  104  -1452.9449444202     4.547E-13 2.364E-08 9.486E-27
 ETOT  105  -1452.9449444202     0.000E+00 1.919E-08 1.248E-26
 ETOT  106  -1452.9449444202    -6.821E-13 1.907E-08 1.239E-26
 ETOT  107  -1452.9449444202     2.274E-13 1.549E-08 7.707E-27
 ETOT  108  -1452.9449444202     6.821E-13 1.538E-08 1.600E-26
 ETOT  109  -1452.9449444202    -2.274E-13 1.251E-08 1.009E-26
 ETOT  110  -1452.9449444202    -1.364E-12 1.241E-08 8.747E-27
 ETOT  111  -1452.9449444202     9.095E-13 1.010E-08 7.247E-27
 ETOT  112  -1452.9449444202     4.547E-13 1.001E-08 5.709E-27
 ETOT  113  -1452.9449444202     6.821E-13 8.156E-09 6.608E-27
 ETOT  114  -1452.9449444202    -6.821E-13 8.074E-09 1.329E-26
 ETOT  115  -1452.9449444202     2.274E-13 6.586E-09 7.180E-27
 ETOT  116  -1452.9449444202    -6.821E-13 6.514E-09 6.308E-27
 ETOT  117  -1452.9449444202     1.137E-12 5.318E-09 1.500E-26
 ETOT  118  -1452.9449444202    -9.095E-13 5.255E-09 6.392E-27
 ETOT  119  -1452.9449444202     1.592E-12 4.294E-09 1.897E-26
 ETOT  120  -1452.9449444202    -1.819E-12 4.240E-09 9.177E-27
 ETOT  121  -1452.9449444202     4.547E-13 3.467E-09 6.751E-27
 ETOT  122  -1452.9449444202    -2.274E-13 3.421E-09 6.464E-27
 ETOT  123  -1452.9449444202     1.592E-12 2.799E-09 5.238E-27
 ETOT  124  -1452.9449444202    -6.821E-13 2.760E-09 5.526E-27
 ETOT  125  -1452.9449444202    -9.095E-13 2.260E-09 1.546E-26
 ETOT  126  -1452.9449444202    -1.137E-12 2.227E-09 1.314E-26
 ETOT  127  -1452.9449444202     1.364E-12 1.825E-09 5.116E-27
 ETOT  128  -1452.9449444202     4.547E-13 1.797E-09 1.638E-26
 ETOT  129  -1452.9449444202    -6.821E-13 1.474E-09 5.676E-27
 ETOT  130  -1452.9449444202    -4.547E-13 1.450E-09 1.182E-26
 ETOT  131  -1452.9449444202     2.274E-13 1.190E-09 7.596E-27
 ETOT  132  -1452.9449444202     1.592E-12 1.170E-09 8.784E-27
 ETOT  133  -1452.9449444202    -2.274E-12 9.610E-10 6.036E-27
 ETOT  134  -1452.9449444202     2.501E-12 9.443E-10 6.613E-27
 ETOT  135  -1452.9449444202    -1.364E-12 7.760E-10 5.110E-27
 ETOT  136  -1452.9449444202    -6.821E-13 7.621E-10 1.393E-26
 ETOT  137  -1452.9449444202     6.821E-13 6.266E-10 5.272E-27
 ETOT  138  -1452.9449444202    -4.547E-13 6.150E-10 8.224E-27
 ETOT  139  -1452.9449444202    -2.274E-13 5.060E-10 1.515E-26
 ETOT  140  -1452.9449444202     6.821E-13 4.964E-10 2.543E-26
 ETOT  141  -1452.9449444202     2.274E-13 4.086E-10 7.374E-27
 ETOT  142  -1452.9449444202    -2.274E-13 4.006E-10 1.935E-26
 ETOT  143  -1452.9449444202     0.000E+00 3.299E-10 7.184E-27
 ETOT  144  -1452.9449444202     2.274E-13 3.233E-10 5.268E-27
 ETOT  145  -1452.9449444202    -4.547E-13 2.664E-10 5.540E-27
 ETOT  146  -1452.9449444202    -4.547E-13 2.609E-10 8.496E-27
 ETOT  147  -1452.9449444202    -2.274E-13 2.151E-10 9.873E-27
 ETOT  148  -1452.9449444202     2.274E-13 2.106E-10 5.248E-27
 ETOT  149  -1452.9449444202    -4.547E-13 1.737E-10 5.957E-27
 ETOT  150  -1452.9449444202     9.095E-13 1.700E-10 1.784E-26
 ETOT  151  -1452.9449444202    -2.274E-13 1.403E-10 4.681E-27
 ETOT  152  -1452.9449444202     9.095E-13 1.372E-10 8.751E-27
 ETOT  153  -1452.9449444202    -1.137E-12 1.133E-10 1.209E-26
 ETOT  154  -1452.9449444202     1.137E-12 1.107E-10 6.143E-27
 ETOT  155  -1452.9449444202    -2.274E-13 9.148E-11 7.224E-27
 ETOT  156  -1452.9449444202    -6.821E-13 8.939E-11 1.469E-26
 ETOT  157  -1452.9449444202     6.821E-13 7.387E-11 7.085E-27
 ETOT  158  -1452.9449444202     4.547E-13 7.216E-11 7.951E-27
 ETOT  159  -1452.9449444202    -2.501E-12 5.966E-11 1.913E-26
 ETOT  160  -1452.9449444202     1.592E-12 5.825E-11 5.980E-27
 ETOT  161  -1452.9449444202    -2.274E-13 4.817E-11 8.557E-27
 ETOT  162  -1452.9449444202     4.547E-13 4.702E-11 1.169E-26
 ETOT  163  -1452.9449444202    -2.274E-13 3.890E-11 1.174E-26
 ETOT  164  -1452.9449444202     6.821E-13 3.796E-11 9.447E-27
 ETOT  165  -1452.9449444202    -1.592E-12 3.141E-11 1.079E-26
 ETOT  166  -1452.9449444202     4.547E-13 3.064E-11 3.142E-26
 ETOT  167  -1452.9449444202    -2.274E-13 2.537E-11 1.058E-26
 ETOT  168  -1452.9449444202     6.821E-13 2.473E-11 6.093E-27
 ETOT  169  -1452.9449444202     0.000E+00 2.049E-11 1.734E-26
 ETOT  170  -1452.9449444202    -1.364E-12 1.997E-11 1.644E-26
 ETOT  171  -1452.9449444202     6.821E-13 1.654E-11 4.073E-27
 ETOT  172  -1452.9449444202     1.364E-12 1.612E-11 6.914E-27
 ETOT  173  -1452.9449444202    -1.364E-12 1.336E-11 6.688E-27
 ETOT  174  -1452.9449444202     1.592E-12 1.301E-11 1.467E-26
 ETOT  175  -1452.9449444202    -1.137E-12 1.079E-11 3.452E-26
 ETOT  176  -1452.9449444202     4.547E-13 1.051E-11 5.060E-26
 ETOT  177  -1452.9449444202    -4.547E-13 8.712E-12 8.041E-27
 ETOT  178  -1452.9449444202     2.274E-13 8.481E-12 8.365E-27
 ETOT  179  -1452.9449444202     6.821E-13 7.036E-12 6.319E-27
 ETOT  180  -1452.9449444202    -1.592E-12 6.847E-12 1.928E-26
 ETOT  181  -1452.9449444202     1.364E-12 5.682E-12 2.162E-26
 ETOT  182  -1452.9449444202    -2.274E-13 5.528E-12 1.819E-26
 ETOT  183  -1452.9449444202     0.000E+00 4.588E-12 8.545E-27
 ETOT  184  -1452.9449444202     2.274E-13 4.463E-12 6.877E-27
 ETOT  185  -1452.9449444202    -2.274E-13 3.705E-12 1.580E-26
 ETOT  186  -1452.9449444202    -1.364E-12 3.603E-12 1.052E-26
 ETOT  187  -1452.9449444202     1.137E-12 2.992E-12 5.678E-27
 ETOT  188  -1452.9449444202     2.274E-13 2.909E-12 4.243E-27
 ETOT  189  -1452.9449444202    -4.547E-13 2.416E-12 1.176E-26
 ETOT  190  -1452.9449444202     0.000E+00 2.348E-12 4.407E-27
 ETOT  191  -1452.9449444202    -2.274E-13 1.951E-12 1.053E-26
 ETOT  192  -1452.9449444202     4.547E-13 1.896E-12 8.737E-27
 ETOT  193  -1452.9449444202     2.274E-13 1.576E-12 5.545E-27
 ETOT  194  -1452.9449444202     2.274E-13 1.531E-12 1.204E-26
 ETOT  195  -1452.9449444202     6.821E-13 1.273E-12 6.435E-27
 ETOT  196  -1452.9449444202    -4.547E-13 1.236E-12 1.347E-26
 ETOT  197  -1452.9449444202    -9.095E-13 1.028E-12 5.654E-27
 ETOT  198  -1452.9449444202     0.000E+00 9.979E-13 1.240E-26
 ETOT  199  -1452.9449444202    -1.364E-12 8.299E-13 1.847E-26
 ETOT  200  -1452.9449444202     1.819E-12 8.057E-13 5.919E-27
 ETOT  201  -1452.9449444202    -1.592E-12 6.702E-13 8.359E-27
 ETOT  202  -1452.9449444202     1.137E-12 6.505E-13 8.872E-27
 ETOT  203  -1452.9449444202     6.821E-13 5.413E-13 2.061E-26
 ETOT  204  -1452.9449444202    -9.095E-13 5.252E-13 2.443E-26
 ETOT  205  -1452.9449444202     6.821E-13 4.371E-13 1.352E-26
 ETOT  206  -1452.9449444202     2.274E-13 4.241E-13 1.387E-26
 ETOT  207  -1452.9449444202    -9.095E-13 3.530E-13 3.959E-27
 ETOT  208  -1452.9449444202     6.821E-13 3.424E-13 7.775E-27
 ETOT  209  -1452.9449444202    -1.819E-12 2.851E-13 4.041E-27
 ETOT  210  -1452.9449444202     1.137E-12 2.765E-13 8.200E-27
 ETOT  211  -1452.9449444202     6.821E-13 2.302E-13 6.007E-27
 ETOT  212  -1452.9449444202     9.095E-13 2.232E-13 9.195E-27
 ETOT  213  -1452.9449444202    -1.364E-12 1.859E-13 6.197E-27
 ETOT  214  -1452.9449444202    -4.547E-13 1.802E-13 9.880E-27
 ETOT  215  -1452.9449444202     4.547E-13 1.501E-13 1.037E-26
 ETOT  216  -1452.9449444202    -2.274E-13 1.455E-13 5.038E-27
 ETOT  217  -1452.9449444202    -2.274E-13 1.212E-13 6.751E-27
 ETOT  218  -1452.9449444202     9.095E-13 1.175E-13 4.246E-27
 ETOT  219  -1452.9449444202    -4.547E-13 9.791E-14 4.683E-27
 ETOT  220  -1452.9449444202    -2.274E-13 9.488E-14 7.643E-27
 ETOT  221  -1452.9449444202    -4.547E-13 7.907E-14 1.812E-26
 ETOT  222  -1452.9449444202     1.364E-12 7.661E-14 8.561E-27
 ETOT  223  -1452.9449444202    -9.095E-13 6.386E-14 1.028E-26
 ETOT  224  -1452.9449444202     6.821E-13 6.186E-14 6.126E-27
 ETOT  225  -1452.9449444202    -6.821E-13 5.157E-14 9.810E-27
 ETOT  226  -1452.9449444202     0.000E+00 4.995E-14 9.033E-27
 ETOT  227  -1452.9449444202     2.274E-13 4.165E-14 2.037E-26
 ETOT  228  -1452.9449444202    -2.274E-13 4.033E-14 6.890E-27
 ETOT  229  -1452.9449444202     2.274E-13 3.363E-14 5.955E-27
 ETOT  230  -1452.9449444202     0.000E+00 3.257E-14 9.905E-27
 ETOT  231  -1452.9449444202     2.274E-13 2.716E-14 1.303E-26
 ETOT  232  -1452.9449444202     2.274E-13 2.630E-14 5.338E-27
 ETOT  233  -1452.9449444202     4.547E-13 2.193E-14 2.056E-26
 ETOT  234  -1452.9449444202    -1.819E-12 2.123E-14 7.342E-27
 ETOT  235  -1452.9449444202     1.592E-12 1.771E-14 9.756E-27
 ETOT  236  -1452.9449444202    -6.821E-13 1.715E-14 9.171E-27
 ETOT  237  -1452.9449444202     0.000E+00 1.430E-14 1.159E-26
 ETOT  238  -1452.9449444202     4.547E-13 1.384E-14 6.625E-27
 ETOT  239  -1452.9449444202     0.000E+00 1.155E-14 8.675E-27
 ETOT  240  -1452.9449444202     0.000E+00 1.118E-14 6.859E-27
 ETOT  241  -1452.9449444202     6.821E-13 9.329E-15 5.515E-27
 ETOT  242  -1452.9449444202    -1.592E-12 9.027E-15 2.753E-26
 ETOT  243  -1452.9449444202     9.095E-13 7.534E-15 1.000E-26
 ETOT  244  -1452.9449444202    -1.137E-12 7.289E-15 1.377E-26
 ETOT  245  -1452.9449444202     2.274E-13 6.084E-15 7.126E-27
 ETOT  246  -1452.9449444202     4.547E-13 5.886E-15 1.036E-26
 ETOT  247  -1452.9449444202    -6.821E-13 4.914E-15 2.290E-26
 ETOT  248  -1452.9449444202     2.274E-13 4.753E-15 6.969E-27
 ETOT  249  -1452.9449444202     1.592E-12 3.968E-15 1.167E-26
 ETOT  250  -1452.9449444202    -1.592E-12 3.838E-15 6.769E-27
 ETOT  251  -1452.9449444202    -2.274E-13 3.205E-15 1.742E-26
 ETOT  252  -1452.9449444202     0.000E+00 3.099E-15 1.341E-26
 ETOT  253  -1452.9449444202     1.137E-12 2.588E-15 6.943E-27
 ETOT  254  -1452.9449444202    -1.364E-12 2.502E-15 5.302E-27
 ETOT  255  -1452.9449444202     4.547E-13 2.090E-15 8.140E-27
 ETOT  256  -1452.9449444202    -9.095E-13 2.021E-15 2.297E-26
 ETOT  257  -1452.9449444202     1.137E-12 1.688E-15 7.043E-27
 ETOT  258  -1452.9449444202     9.095E-13 1.632E-15 1.985E-26
 ETOT  259  -1452.9449444202    -1.364E-12 1.363E-15 5.771E-27
 ETOT  260  -1452.9449444202     1.137E-12 1.318E-15 2.316E-26
 ETOT  261  -1452.9449444202    -4.547E-13 1.101E-15 2.168E-26
 ETOT  262  -1452.9449444202    -1.364E-12 1.064E-15 5.279E-27
 ETOT  263  -1452.9449444202     1.819E-12 8.889E-16 1.195E-26
 ETOT  264  -1452.9449444202    -2.274E-13 8.591E-16 5.691E-27
 ETOT  265  -1452.9449444202    -2.274E-13 7.179E-16 4.344E-26
 ETOT  266  -1452.9449444202    -1.137E-12 6.938E-16 6.821E-27
 ETOT  267  -1452.9449444202     2.046E-12 5.798E-16 1.001E-26
 ETOT  268  -1452.9449444202    -2.274E-13 5.602E-16 8.784E-27
 ETOT  269  -1452.9449444202     9.095E-13 4.682E-16 1.065E-26
 ETOT  270  -1452.9449444202    -1.364E-12 4.524E-16 9.466E-27
 ETOT  271  -1452.9449444202     1.364E-12 3.781E-16 1.383E-26
 ETOT  272  -1452.9449444202    -9.095E-13 3.653E-16 1.196E-26
 ETOT  273  -1452.9449444202    -6.821E-13 3.054E-16 6.731E-27
 ETOT  274  -1452.9449444202     9.095E-13 2.950E-16 8.593E-27
 ETOT  275  -1452.9449444202     0.000E+00 2.466E-16 6.025E-27
 ETOT  276  -1452.9449444202     2.274E-13 2.382E-16 5.438E-27
 ETOT  277  -1452.9449444202    -6.821E-13 1.991E-16 7.395E-27
 ETOT  278  -1452.9449444202     6.821E-13 1.924E-16 1.250E-26
 ETOT  279  -1452.9449444202    -9.095E-13 1.608E-16 6.984E-27
 ETOT  280  -1452.9449444202    -4.547E-13 1.553E-16 1.407E-26
 ETOT  281  -1452.9449444202     6.821E-13 1.299E-16 4.135E-27
 ETOT  282  -1452.9449444202    -2.274E-13 1.254E-16 7.290E-27
 ETOT  283  -1452.9449444202    -2.274E-13 1.049E-16 5.544E-27
 ETOT  284  -1452.9449444202    -9.095E-13 1.013E-16 3.091E-26
 ETOT  285  -1452.9449444202     0.000E+00 8.470E-17 6.730E-27
 ETOT  286  -1452.9449444202     9.095E-13 8.179E-17 1.305E-26
 ETOT  287  -1452.9449444202     2.274E-13 6.841E-17 1.328E-26
 ETOT  288  -1452.9449444202    -2.274E-13 6.605E-17 1.149E-26
 ETOT  289  -1452.9449444202    -1.819E-12 5.524E-17 4.616E-27
 ETOT  290  -1452.9449444202     1.592E-12 5.334E-17 8.417E-27
 ETOT  291  -1452.9449444202     1.592E-12 4.461E-17 7.366E-27
 ETOT  292  -1452.9449444202    -2.274E-13 4.307E-17 3.813E-27
 ETOT  293  -1452.9449444202    -1.819E-12 3.603E-17 7.354E-27
 ETOT  294  -1452.9449444202     4.547E-13 3.478E-17 6.103E-27
 ETOT  295  -1452.9449444202     1.364E-12 2.910E-17 1.733E-26
 ETOT  296  -1452.9449444202    -1.819E-12 2.809E-17 7.971E-27
 ETOT  297  -1452.9449444202    -2.274E-13 2.350E-17 5.019E-27
 ETOT  298  -1452.9449444202     1.364E-12 2.268E-17 2.187E-26
 ETOT  299  -1452.9449444202    -2.274E-13 1.898E-17 7.716E-27
 ETOT  300  -1452.9449444202     6.821E-13 1.831E-17 1.218E-26
 ETOT  301  -1452.9449444202    -2.274E-13 1.532E-17 4.741E-27
 ETOT  302  -1452.9449444202     6.821E-13 1.479E-17 7.146E-27
 ETOT  303  -1452.9449444202    -1.364E-12 1.238E-17 7.392E-27
 ETOT  304  -1452.9449444202    -2.274E-13 1.194E-17 9.011E-27
 ETOT  305  -1452.9449444202     1.137E-12 9.994E-18 6.628E-27
 ETOT  306  -1452.9449444202     0.000E+00 9.644E-18 1.607E-26
 ETOT  307  -1452.9449444202    -6.821E-13 8.071E-18 2.635E-26
 ETOT  308  -1452.9449444202    -4.547E-13 7.788E-18 6.361E-27
 ETOT  309  -1452.9449444202     0.000E+00 6.518E-18 7.944E-27
 ETOT  310  -1452.9449444202     9.095E-13 6.289E-18 1.623E-26
 ETOT  311  -1452.9449444202     2.274E-13 5.264E-18 1.157E-26
 ETOT  312  -1452.9449444202    -9.095E-13 5.079E-18 1.084E-26
 ETOT  313  -1452.9449444202    -9.095E-13 4.251E-18 6.020E-27
 ETOT  314  -1452.9449444202     1.137E-12 4.101E-18 1.202E-26
 ETOT  315  -1452.9449444202     6.821E-13 3.433E-18 5.579E-27
 ETOT  316  -1452.9449444202    -9.095E-13 3.312E-18 6.265E-27
 ETOT  317  -1452.9449444202     6.821E-13 2.772E-18 5.958E-27
 ETOT  318  -1452.9449444202     2.274E-13 2.674E-18 1.071E-26
 ETOT  319  -1452.9449444202    -9.095E-13 2.239E-18 5.201E-27
 ETOT  320  -1452.9449444202     4.547E-13 2.160E-18 7.821E-27
 ETOT  321  -1452.9449444202     0.000E+00 1.808E-18 2.249E-26
 ETOT  322  -1452.9449444202     0.000E+00 1.744E-18 3.432E-26
 ETOT  323  -1452.9449444202     6.821E-13 1.460E-18 4.533E-27
 ETOT  324  -1452.9449444202    -2.274E-13 1.408E-18 2.863E-26
 ETOT  325  -1452.9449444202    -2.274E-13 1.179E-18 2.440E-26
 ETOT  326  -1452.9449444202    -9.095E-13 1.137E-18 3.353E-26
 ETOT  327  -1452.9449444202     1.819E-12 9.523E-19 4.592E-27
 ETOT  328  -1452.9449444202    -6.821E-13 9.184E-19 1.200E-26
 ETOT  329  -1452.9449444202     0.000E+00 7.691E-19 7.986E-27
 ETOT  330  -1452.9449444202    -1.364E-12 7.416E-19 4.804E-27
 ETOT  331  -1452.9449444202     1.364E-12 6.211E-19 8.068E-27
 ETOT  332  -1452.9449444202    -2.274E-13 5.989E-19 5.280E-27
 ETOT  333  -1452.9449444202     0.000E+00 5.016E-19 4.227E-27
 ETOT  334  -1452.9449444202     2.274E-13 4.836E-19 9.737E-27
 ETOT  335  -1452.9449444202    -4.547E-13 4.050E-19 1.012E-26
 ETOT  336  -1452.9449444202     9.095E-13 3.906E-19 6.925E-27
 ETOT  337  -1452.9449444202    -2.274E-13 3.271E-19 8.284E-27
 ETOT  338  -1452.9449444202    -4.547E-13 3.154E-19 1.346E-26
 ETOT  339  -1452.9449444202     0.000E+00 2.642E-19 2.504E-26
 ETOT  340  -1452.9449444202    -2.274E-13 2.547E-19 4.422E-27
 ETOT  341  -1452.9449444202    -6.821E-13 2.133E-19 4.505E-27
 ETOT  342  -1452.9449444202     4.547E-13 2.057E-19 9.858E-27
 ETOT  343  -1452.9449444202    -2.274E-13 1.723E-19 6.739E-27
 ETOT  344  -1452.9449444202     2.274E-13 1.661E-19 1.142E-26
 ETOT  345  -1452.9449444202    -1.819E-12 1.391E-19 8.067E-27
 ETOT  346  -1452.9449444202     2.956E-12 1.341E-19 1.027E-26
 ETOT  347  -1452.9449444202    -1.137E-12 1.124E-19 1.547E-26
 ETOT  348  -1452.9449444202     2.274E-13 1.083E-19 5.581E-27
 ETOT  349  -1452.9449444202     1.364E-12 9.074E-20 9.851E-27
 ETOT  350  -1452.9449444202    -1.819E-12 8.747E-20 5.783E-27
 ETOT  351  -1452.9449444202     1.137E-12 7.328E-20 9.123E-27
 ETOT  352  -1452.9449444202    -6.821E-13 7.063E-20 2.739E-26
 ETOT  353  -1452.9449444202    -4.547E-13 5.918E-20 5.590E-27
 ETOT  354  -1452.9449444202     2.046E-12 5.704E-20 1.150E-26
 ETOT  355  -1452.9449444202    -1.364E-12 4.779E-20 1.517E-26
 ETOT  356  -1452.9449444202     0.000E+00 4.606E-20 1.184E-26
 ETOT  357  -1452.9449444202     4.547E-13 3.859E-20 1.067E-26
 ETOT  358  -1452.9449444202     2.274E-13 3.720E-20 1.012E-26
 ETOT  359  -1452.9449444202    -1.592E-12 3.117E-20 6.171E-27
 ETOT  360  -1452.9449444202     1.137E-12 3.004E-20 7.997E-27
 ETOT  361  -1452.9449444202    -2.274E-13 2.517E-20 5.668E-27
 ETOT  362  -1452.9449444202    -1.364E-12 2.426E-20 5.866E-27
 ETOT  363  -1452.9449444202     6.821E-13 2.033E-20 7.821E-27
 ETOT  364  -1452.9449444202    -2.274E-13 1.959E-20 8.982E-27
 ETOT  365  -1452.9449444202     9.095E-13 9.970E-21 6.476E-27

 At SCF step  365   max residual=  9.97E-21 < tolwfr=  1.00E-20 =>converged.

 Cartesian components of stress tensor (hartree/bohr^3)
  sigma(1 1)=  1.50332907E-02  sigma(3 2)=  0.00000000E+00
  sigma(2 2)=  1.50332907E-02  sigma(3 1)=  0.00000000E+00
  sigma(3 3)=  1.49201386E-02  sigma(2 1)=  0.00000000E+00


--- !ResultsGS
iteration_state: {dtset: 1, }
comment   : Summary of ground state results
lattice_vectors:
- [  7.7624317,   0.0000000,   0.0000000, ]
- [  0.0000000,   7.7624317,   0.0000000, ]
- [  0.0000000,   0.0000000,  44.4614870, ]
lattice_lengths: [   7.76243,    7.76243,   44.46149, ]
lattice_angles: [ 90.000,  90.000,  90.000, ] # degrees, (23, 13, 12)
lattice_volume:   2.6790423E+03
convergence: {deltae:  9.095E-13, res2:  6.476E-27, residm:  9.970E-21, diffor: null, }
etotal    :  -1.45294494E+03
entropy   :   0.00000000E+00
fermie    :   1.06967250E-01
cartesian_stress_tensor: # hartree/bohr^3
- [  1.50332907E-02,   0.00000000E+00,   0.00000000E+00, ]
- [  0.00000000E+00,   1.50332907E-02,   0.00000000E+00, ]
- [  0.00000000E+00,   0.00000000E+00,   1.49201386E-02, ]
pressure_GPa:  -4.4118E+02
xred      :
- [  5.0000E-01,   0.0000E+00,   1.9834E-01, Sn]
- [  0.0000E+00,   5.0000E-01,   3.1520E-01, Sn]
- [  5.0000E-01,   0.0000E+00,   4.2937E-01, Sn]
- [  0.0000E+00,   5.0000E-01,   5.4624E-01, Sn]
- [  0.0000E+00,   5.0000E-01,   1.9969E-01, Se]
- [  5.0000E-01,   0.0000E+00,   3.1385E-01, Se]
- [  0.0000E+00,   5.0000E-01,   4.3072E-01, Se]
- [  5.0000E-01,   0.0000E+00,   5.4489E-01, Se]
- [  5.0000E-01,   0.0000E+00,   6.7458E-01, Se]
- [  0.0000E+00,   5.0000E-01,   8.0166E-01, Se]
- [  5.0000E-01,   5.0000E-01,   7.3812E-01, Zn]
- [  0.0000E+00,   0.0000E+00,   7.3812E-01, Zn]
cartesian_forces: # hartree/bohr
- [ -0.00000000E+00,  -0.00000000E+00,  -1.43212633E-02, ]
- [ -0.00000000E+00,  -0.00000000E+00,  -1.93882653E-02, ]
- [ -0.00000000E+00,  -0.00000000E+00,   1.40374938E-02, ]
- [ -0.00000000E+00,  -0.00000000E+00,   1.11347382E-02, ]
- [ -0.00000000E+00,  -0.00000000E+00,  -1.56908315E-02, ]
- [ -0.00000000E+00,  -0.00000000E+00,  -1.61789966E-02, ]
- [ -0.00000000E+00,  -0.00000000E+00,   1.19170274E-02, ]
- [ -0.00000000E+00,  -0.00000000E+00,  -3.22805274E-03, ]
- [ -0.00000000E+00,  -0.00000000E+00,   1.29014990E-02, ]
- [ -0.00000000E+00,  -0.00000000E+00,  -1.25213398E-02, ]
- [ -0.00000000E+00,  -0.00000000E+00,   1.56689954E-02, ]
- [ -0.00000000E+00,  -0.00000000E+00,   1.56689954E-02, ]
force_length_stats: {min:   3.22805274E-03, max:   1.93882653E-02, mean:   1.35547915E-02, }
...

 Integrated electronic density in atomic spheres:
 ------------------------------------------------
 Atom  Sphere_radius  Integrated_density
    1        2.00000         10.57111460
    2        2.00000         10.56860898
    3        2.00000         10.56247340
    4        2.00000         10.56230173
    5        2.00000         13.28007815
    6        2.00000         13.32151552
    7        2.00000         13.30394121
    8        2.00000         13.27208847
    9        2.00000         13.26873966
   10        2.00000         13.29223258
   11        2.00000         18.09938600
   12        2.00000         18.09938600
================================================================================

 ----iterations are completed or convergence reached----

 Mean square residual over all n,k,spin=   37.196E-22; max=  99.704E-22
 reduced coordinates (array xred) for   12 atoms
       0.500000000000      0.000000000000      0.198337000000
       0.000000000000      0.500000000000      0.315203000000
       0.500000000000      0.000000000000      0.429369000000
       0.000000000000      0.500000000000      0.546235000000
       0.000000000000      0.500000000000      0.199687000000
       0.500000000000      0.000000000000      0.313853000000
       0.000000000000      0.500000000000      0.430719000000
       0.500000000000      0.000000000000      0.544885000000
       0.500000000000      0.000000000000      0.674580000000
       0.000000000000      0.500000000000      0.801663000000
       0.500000000000      0.500000000000      0.738122000000
       0.000000000000      0.000000000000      0.738122000000
 rms dE/dt=  3.6787E-01; max dE/dt=  7.4179E-01; dE/dt below (all hartree)
    1       0.000000000000      0.000000000000      0.516500944644
    2       0.000000000000      0.000000000000      0.741787389916
    3       0.000000000000      0.000000000000     -0.744371567808
    4       0.000000000000      0.000000000000     -0.615310733465
    5       0.000000000000      0.000000000000      0.577393984608
    6       0.000000000000      0.000000000000      0.599098527982
    7       0.000000000000      0.000000000000     -0.650092477413
    8       0.000000000000      0.000000000000      0.023280307608
    9       0.000000000000      0.000000000000     -0.693863546051
   10       0.000000000000      0.000000000000      0.436473669947
   11       0.000000000000      0.000000000000     -0.816910553559
   12       0.000000000000      0.000000000000     -0.816910553559

 cartesian coordinates (angstrom) at end:
    1      2.05385096425820     0.00000000000000     4.66647404481447
    2      0.00000000000000     2.05385096425820     7.41609794616059
    3      2.05385096425820     0.00000000000000    10.10219623241222
    4      0.00000000000000     2.05385096425820    12.85182013375835
    5      0.00000000000000     2.05385096425820     4.69823685236172
    6      2.05385096425820     0.00000000000000     7.38433513861334
    7      0.00000000000000     2.05385096425820    10.13395903995947
    8      2.05385096425820     0.00000000000000    12.82005732621109
    9      2.05385096425820     0.00000000000000    15.87152201127849
   10      0.00000000000000     2.05385096425820    18.86153154574335
   11      2.05385096425820     2.05385096425820    17.36653854251371
   12      0.00000000000000     0.00000000000000    17.36653854251371

 cartesian forces (hartree/bohr) at end:
    1     -0.00000000000000    -0.00000000000000    -0.01432126329089
    2     -0.00000000000000    -0.00000000000000    -0.01938826532741
    3     -0.00000000000000    -0.00000000000000     0.01403749384893
    4     -0.00000000000000    -0.00000000000000     0.01113473816090
    5     -0.00000000000000    -0.00000000000000    -0.01569083151830
    6     -0.00000000000000    -0.00000000000000    -0.01617899655345
    7     -0.00000000000000    -0.00000000000000     0.01191702742471
    8     -0.00000000000000    -0.00000000000000    -0.00322805273715
    9     -0.00000000000000    -0.00000000000000     0.01290149896564
   10     -0.00000000000000    -0.00000000000000    -0.01252133980516
   11     -0.00000000000000    -0.00000000000000     0.01566899541610
   12     -0.00000000000000    -0.00000000000000     0.01566899541610
 frms,max,avg= 8.1252393E-03 1.9388265E-02   0.000E+00  0.000E+00  2.704E-03 h/b

 cartesian forces (eV/Angstrom) at end:
    1     -0.00000000000000    -0.00000000000000    -0.73642890593681
    2     -0.00000000000000    -0.00000000000000    -0.99698460485387
    3     -0.00000000000000    -0.00000000000000     0.72183689575991
    4     -0.00000000000000    -0.00000000000000     0.57257120933849
    5     -0.00000000000000    -0.00000000000000    -0.80685492987269
    6     -0.00000000000000    -0.00000000000000    -0.83195738315846
    7     -0.00000000000000    -0.00000000000000     0.61279813729681
    8     -0.00000000000000    -0.00000000000000    -0.16599313183776
    9     -0.00000000000000    -0.00000000000000     0.66342169508573
   10     -0.00000000000000    -0.00000000000000    -0.64387312671243
   11     -0.00000000000000    -0.00000000000000     0.80573207244554
   12     -0.00000000000000    -0.00000000000000     0.80573207244554
 frms,max,avg= 4.1781657E-01 9.9698460E-01   0.000E+00  0.000E+00  1.391E-01 e/A
 length scales=  7.762431680422  7.762431680422  7.762431680422 bohr
              =  4.107701928516  4.107701928516  4.107701928516 angstroms
 prteigrs : about to open file Cs2TiI6o_DS1_EIG
 Fermi (or HOMO) energy (hartree) =   0.10697   Average Vxc (hartree)=  -0.29199
 Eigenvalues (hartree) for nkpt=  10  k points:
 kpt#   1, nband=105, wtk=  0.06250, kpt=  0.0625  0.0625  0.5000 (reduced coord)
  -4.75298   -4.75298   -2.99051   -2.99022   -2.98801   -2.98780   -2.98752   -2.98722
  -1.70888   -1.70852   -1.70652   -1.70644   -1.70609   -1.70579   -1.70300   -1.70293
  -1.70226   -1.70187   -1.70108   -1.70076   -1.69983   -1.69932   -1.69750   -1.69633
  -1.69566   -1.69522   -1.69237   -1.69233   -1.68562   -1.68495   -1.68350   -1.68324
  -1.68297   -1.68128   -1.68091   -1.68049   -1.67801   -1.67737   -0.69894   -0.69863
  -0.69766   -0.69724   -0.69724   -0.69714   -0.69678   -0.69647   -0.69622   -0.69619
  -0.69607   -0.69576   -0.69575   -0.69448   -0.69445   -0.69419   -0.69331   -0.69327
  -0.69284   -0.69259   -0.45097   -0.43058   -0.42470   -0.40283   -0.39375   -0.38420
  -0.21554   -0.21462   -0.21366   -0.21305   -0.21266   -0.20104   -0.19947   -0.19877
  -0.19362   -0.19262   -0.16692   -0.15588   -0.12540   -0.11267   -0.09185   -0.08036
  -0.06289   -0.04657   -0.03893   -0.03076   -0.02934   -0.02198   -0.01115   -0.00808
   0.00253    0.00723    0.02425    0.03255    0.03830    0.04165    0.04167    0.08841
   0.12771    0.14359    0.16292    0.18102    0.20953    0.22307    0.23477    0.23712
   0.23775
 prteigrs : prtvol=0 or 1, do not print more k-points.


--- !EnergyTerms
iteration_state     : {dtset: 1, }
comment             : Components of total free energy in Hartree
kinetic             :  8.16685493505036E+02
hartree             :  1.64034602047631E+03
xc                  : -2.75550860361584E+02
Ewald energy        :  4.31740719910211E+02
psp_core            :  2.58828320250315E+01
local_psp           : -3.61235554782079E+03
non_local_psp       : -4.79561385553452E+02
VdWaals_dft_d       : -1.32216601059998E-01
total_energy        : -1.45294494442029E+03
...


--- !EnergyTermsDC
iteration_state     : {dtset: 1, }
comment             : '"Double-counting" decomposition of free energy'
band_energy         : -1.95124196642397E+02
Ewald energy        :  4.31740719910211E+02
psp_core            :  2.58828320250315E+01
xc_dc               : -1.71531208311203E+03
VdWaals_dft_d       : -1.32216601059998E-01
total_energy_dc     : -1.45294494442024E+03
...


 Cartesian components of stress tensor (hartree/bohr^3)
  sigma(1 1)=  1.50332907E-02  sigma(3 2)=  0.00000000E+00
  sigma(2 2)=  1.50332907E-02  sigma(3 1)=  0.00000000E+00
  sigma(3 3)=  1.49201386E-02  sigma(2 1)=  0.00000000E+00

-Cartesian components of stress tensor (GPa)         [Pressure= -4.4118E+02 GPa]
- sigma(1 1)=  4.42294608E+02  sigma(3 2)=  0.00000000E+00
- sigma(2 2)=  4.42294608E+02  sigma(3 1)=  0.00000000E+00
- sigma(3 3)=  4.38965559E+02  sigma(2 1)=  0.00000000E+00

================================================================================
== DATASET  2 ==================================================================
-   mpi_nproc: 6, omp_nthreads: -1 (-1 if OMP is not activated)


--- !DatasetInfo
iteration_state: {dtset: 2, }
dimensions: {natom: 12, nkpt: 57, mband: 105, nsppol: 1, nspinor: 1, nspden: 1, mpw: 13759, }
cutoff_energies: {ecut:  22.5, pawecutdg:  -1.0, }
electrons: {nelect:   1.92000000E+02, charge:   0.00000000E+00, occopt:   1.00000000E+00, tsmear:   1.00000000E-02, }
meta: {optdriver: 0, ionmov: 0, optcell: 0, iscf: -2, paral_kgb: 0, }
...

 mkfilename : getden/=0, take file _DEN from output of DATASET   1.

 Real(R)+Recip(G) space primitive vectors, cartesian coordinates (Bohr,Bohr^-1):
 R(1)=  7.7624317  0.0000000  0.0000000  G(1)=  0.1288256  0.0000000  0.0000000
 R(2)=  0.0000000  7.7624317  0.0000000  G(2)=  0.0000000  0.1288256  0.0000000
 R(3)=  0.0000000  0.0000000 44.4614870  G(3)=  0.0000000  0.0000000  0.0224914
 Unit cell volume ucvol=  2.6790423E+03 bohr^3
 Angles (23,13,12)=  9.00000000E+01  9.00000000E+01  9.00000000E+01 degrees

 getcut: wavevector=  0.0000  0.0000  0.0000  ngfft=  36  36 192
         ecut(hartree)=     22.500   => boxcut(ratio)=   2.02237
--------------------------------------------------------------------------------


================================================================================
 prteigrs : about to open file Cs2TiI6o_DS2_EIG
 Non-SCF case, kpt    1 (  0.50000  0.50000  0.00000), residuals and eigenvalues=
  5.91E-21  6.34E-21  3.70E-21  6.74E-21  3.34E-21  6.52E-21  2.28E-21  3.08E-21
  6.07E-21  3.95E-21  5.36E-21  4.79E-21  8.21E-21  6.54E-21  2.01E-21  4.71E-21
  6.84E-21  4.51E-21  4.20E-21  7.40E-21  2.96E-21  6.23E-21  2.53E-21  4.39E-21
  2.69E-21  8.40E-21  3.53E-21  2.30E-21  5.13E-21  4.72E-21  8.74E-21  3.15E-21
  6.31E-21  4.27E-21  2.33E-21  2.91E-21  8.18E-21  3.49E-21  2.89E-21  9.12E-21
  5.10E-21  3.62E-21  4.07E-21  4.14E-21  4.50E-21  9.70E-21  8.72E-21  5.10E-21
  4.10E-21  6.03E-21  4.68E-21  6.82E-21  8.73E-21  9.73E-21  5.40E-21  3.91E-21
  6.27E-21  8.51E-21  7.63E-21  5.95E-21  6.27E-21  5.11E-21  2.84E-21  5.59E-21
  6.97E-21  2.92E-21  7.17E-21  4.48E-21  5.60E-21  7.75E-21  6.27E-21  9.66E-21
  3.62E-21  9.55E-21  4.74E-21  3.48E-21  5.14E-21  4.18E-21  6.71E-21  2.87E-21
  8.46E-21  7.44E-21  2.85E-21  7.52E-21  7.25E-21  4.17E-21  5.76E-21  6.87E-21
  5.78E-21  5.53E-21  3.86E-21  3.76E-21  4.62E-21  4.66E-21  5.17E-21  7.47E-21
  3.37E-21  7.95E-21  5.76E-21  9.50E-21  6.88E-21  5.01E-21  8.85E-21  5.64E-21
  7.13E-16
 -4.7530E+00 -4.7530E+00 -2.9890E+00 -2.9890E+00 -2.9886E+00 -2.9885E+00
 -2.9879E+00 -2.9879E+00 -1.7073E+00 -1.7073E+00 -1.7059E+00 -1.7048E+00
 -1.7041E+00 -1.7041E+00 -1.7038E+00 -1.7029E+00 -1.7024E+00 -1.7010E+00
 -1.7009E+00 -1.7007E+00 -1.7000E+00 -1.6998E+00 -1.6998E+00 -1.6959E+00
 -1.6954E+00 -1.6954E+00 -1.6952E+00 -1.6934E+00 -1.6855E+00 -1.6844E+00
 -1.6823E+00 -1.6819E+00 -1.6819E+00 -1.6816E+00 -1.6814E+00 -1.6785E+00
 -1.6785E+00 -1.6785E+00 -6.9890E-01 -6.9854E-01 -6.9850E-01 -6.9777E-01
 -6.9721E-01 -6.9721E-01 -6.9628E-01 -6.9617E-01 -6.9604E-01 -6.9598E-01
 -6.9598E-01 -6.9536E-01 -6.9507E-01 -6.9495E-01 -6.9495E-01 -6.9426E-01
 -6.9350E-01 -6.9296E-01 -6.9296E-01 -6.9229E-01 -4.0250E-01 -4.0106E-01
 -3.9934E-01 -3.9252E-01 -3.7364E-01 -3.7178E-01 -2.1786E-01 -2.1786E-01
 -2.0510E-01 -2.0510E-01 -1.9990E-01 -1.9940E-01 -1.9928E-01 -1.9928E-01
 -1.9748E-01 -1.9743E-01 -1.6758E-01 -1.6620E-01 -1.3367E-01 -1.3367E-01
 -1.2590E-01 -1.2481E-01 -1.0992E-01 -1.0992E-01 -1.0476E-01 -1.0476E-01
 -7.3467E-02 -7.3467E-02 -5.3562E-02 -5.1009E-02 -5.1009E-02 -2.9386E-02
 -2.8718E-02 -2.8718E-02 -2.6251E-02 -1.2523E-02  5.6933E-02  6.4651E-02
  1.7639E-01  1.8973E-01  1.9431E-01  1.9431E-01  2.1671E-01  2.1692E-01
  2.2982E-01  2.2982E-01  2.7236E-01
  prteigrs : nnsclo,ikpt=  300    1 max resid (incl. the buffer)=  7.13327E-16
 Non-SCF case, kpt    2 (  0.45000  0.45000  0.05000), residuals and eigenvalues=
  1.51E-21  1.97E-21  3.62E-21  2.85E-21  5.83E-21  1.90E-21  1.46E-21  8.53E-21
  2.75E-21  5.61E-21  4.80E-21  7.01E-21  4.15E-21  3.82E-21  5.88E-21  2.40E-21
  2.53E-21  3.52E-21  2.85E-21  5.66E-21  3.74E-21  9.95E-21  6.08E-21  2.15E-21
  4.12E-21  7.92E-21  6.66E-21  6.44E-21  3.04E-21  2.78E-21  3.98E-21  4.14E-21
  6.55E-21  5.45E-21  5.84E-21  5.34E-21  2.38E-21  6.74E-21  2.96E-21  9.88E-21
  2.56E-21  9.07E-21  2.90E-21  2.39E-21  6.91E-21  3.43E-21  5.79E-21  4.40E-21
  8.01E-21  9.25E-21  5.86E-21  3.31E-21  5.35E-21  3.54E-21  9.29E-21  8.88E-21
  5.04E-21  2.52E-21  4.16E-21  4.23E-21  7.62E-21  8.48E-21  3.32E-21  3.60E-21
  6.18E-21  4.23E-21  6.27E-21  3.74E-21  3.68E-21  5.96E-21  9.66E-21  7.34E-21
  3.87E-21  3.45E-21  7.47E-21  3.83E-21  9.29E-21  4.01E-21  3.93E-21  5.59E-21
  4.20E-21  1.60E-21  4.01E-21  2.76E-21  6.27E-21  3.23E-21  6.27E-21  6.91E-21
  2.60E-21  6.20E-21  3.20E-21  9.84E-21  2.90E-21  9.26E-21  7.39E-21  6.70E-21
  9.37E-21  4.99E-21  3.34E-21  2.80E-21  3.47E-21  3.45E-21  4.51E-21  7.87E-21
  1.39E-05
 -4.7530E+00 -4.7530E+00 -2.9889E+00 -2.9887E+00 -2.9884E+00 -2.9884E+00
 -2.9882E+00 -2.9877E+00 -1.7082E+00 -1.7075E+00 -1.7066E+00 -1.7053E+00
 -1.7042E+00 -1.7030E+00 -1.7025E+00 -1.7018E+00 -1.7012E+00 -1.7010E+00
 -1.7006E+00 -1.7005E+00 -1.7001E+00 -1.6995E+00 -1.6986E+00 -1.6954E+00
 -1.6954E+00 -1.6950E+00 -1.6944E+00 -1.6934E+00 -1.6846E+00 -1.6838E+00
 -1.6820E+00 -1.6819E+00 -1.6812E+00 -1.6809E+00 -1.6806E+00 -1.6791E+00
 -1.6785E+00 -1.6780E+00 -6.9862E-01 -6.9828E-01 -6.9811E-01 -6.9769E-01
 -6.9707E-01 -6.9691E-01 -6.9665E-01 -6.9615E-01 -6.9607E-01 -6.9604E-01
 -6.9601E-01 -6.9563E-01 -6.9502E-01 -6.9484E-01 -6.9471E-01 -6.9422E-01
 -6.9375E-01 -6.9300E-01 -6.9291E-01 -6.9225E-01 -4.0304E-01 -4.0204E-01
 -3.9998E-01 -3.9295E-01 -3.7442E-01 -3.7261E-01 -2.1756E-01 -2.1671E-01
 -2.0509E-01 -2.0507E-01 -2.0169E-01 -1.9948E-01 -1.9878E-01 -1.9807E-01
 -1.9791E-01 -1.9725E-01 -1.7233E-01 -1.7092E-01 -1.4229E-01 -1.3231E-01
 -1.3204E-01 -1.1074E-01 -1.0868E-01 -1.0835E-01 -1.0350E-01 -9.6840E-02
 -7.2167E-02 -6.6315E-02 -5.3178E-02 -4.9784E-02 -4.1433E-02 -3.3161E-02
 -2.7713E-02 -2.7277E-02 -1.9839E-02 -1.0099E-02  5.6253E-02  6.4921E-02
  1.7448E-01  1.8873E-01  1.9480E-01  1.9716E-01  2.1565E-01  2.1798E-01
  2.3094E-01  2.3370E-01  2.7175E-01
  prteigrs : nnsclo,ikpt=  300    2 max resid (incl. the buffer)=  1.38515E-05
 Non-SCF case, kpt    3 (  0.40000  0.40000  0.10000), residuals and eigenvalues=
  1.82E-21  1.90E-21  1.39E-21  2.03E-21  1.92E-21  1.10E-21  1.59E-21  9.59E-21
  6.14E-21  2.54E-21  3.82E-21  4.05E-21  3.07E-21  8.99E-21  4.42E-21  5.54E-21
  7.34E-21  3.86E-21  6.64E-21  2.99E-21  4.58E-21  4.26E-21  4.99E-21  7.17E-21
  7.94E-21  3.18E-21  4.73E-21  4.02E-21  6.90E-21  3.24E-21  9.34E-21  2.60E-21
  4.11E-21  9.05E-21  8.67E-21  9.43E-21  3.35E-21  3.70E-21  2.43E-21  5.34E-21
  6.92E-21  5.12E-21  2.36E-21  7.67E-21  7.99E-21  4.25E-21  9.93E-21  2.47E-21
  4.45E-21  3.37E-21  3.30E-21  9.32E-21  2.46E-21  5.07E-21  8.15E-21  8.62E-21
  2.84E-21  2.97E-21  5.83E-21  3.70E-21  3.43E-21  8.06E-21  4.76E-21  5.56E-21
  9.18E-21  9.85E-21  8.93E-21  7.29E-21  7.89E-21  8.45E-21  7.75E-21  8.73E-21
  4.02E-21  8.50E-21  7.92E-21  6.50E-21  2.37E-21  5.63E-21  6.57E-21  4.89E-21
  3.98E-21  3.61E-21  4.09E-21  7.79E-21  6.09E-21  4.83E-21  2.65E-21  5.98E-21
  6.51E-21  4.13E-21  6.56E-21  3.85E-21  9.43E-21  4.18E-21  8.03E-21  2.80E-21
  2.76E-21  5.49E-21  2.92E-21  6.47E-21  7.24E-21  5.52E-21  8.33E-21  4.72E-18
  8.20E-15
 -4.7530E+00 -4.7530E+00 -2.9893E+00 -2.9888E+00 -2.9884E+00 -2.9880E+00
 -2.9879E+00 -2.9879E+00 -1.7082E+00 -1.7072E+00 -1.7061E+00 -1.7053E+00
 -1.7039E+00 -1.7030E+00 -1.7024E+00 -1.7021E+00 -1.7015E+00 -1.7011E+00
 -1.7008E+00 -1.7003E+00 -1.7000E+00 -1.6994E+00 -1.6987E+00 -1.6953E+00
 -1.6952E+00 -1.6945E+00 -1.6944E+00 -1.6941E+00 -1.6845E+00 -1.6840E+00
 -1.6822E+00 -1.6819E+00 -1.6818E+00 -1.6814E+00 -1.6807E+00 -1.6792E+00
 -1.6786E+00 -1.6780E+00 -6.9854E-01 -6.9824E-01 -6.9811E-01 -6.9763E-01
 -6.9696E-01 -6.9681E-01 -6.9668E-01 -6.9624E-01 -6.9608E-01 -6.9608E-01
 -6.9605E-01 -6.9562E-01 -6.9510E-01 -6.9477E-01 -6.9476E-01 -6.9410E-01
 -6.9383E-01 -6.9297E-01 -6.9297E-01 -6.9232E-01 -4.0636E-01 -4.0435E-01
 -4.0108E-01 -3.9411E-01 -3.7651E-01 -3.7481E-01 -2.1826E-01 -2.1380E-01
 -2.0636E-01 -2.0468E-01 -2.0363E-01 -1.9940E-01 -1.9896E-01 -1.9886E-01
 -1.9744E-01 -1.9741E-01 -1.8136E-01 -1.7890E-01 -1.5007E-01 -1.4468E-01
 -1.2828E-01 -1.0927E-01 -1.0526E-01 -9.9817E-02 -8.5415E-02 -7.5528E-02
 -6.8321E-02 -6.1054E-02 -4.6172E-02 -4.5338E-02 -3.6513E-02 -2.4652E-02
 -2.2931E-02 -1.6960E-02 -7.9677E-03 -2.0266E-03  5.2964E-02  6.7849E-02
  1.6936E-01  1.8734E-01  1.9617E-01  2.0311E-01  2.1441E-01  2.2128E-01
  2.3424E-01  2.4103E-01  2.5149E-01
  prteigrs : nnsclo,ikpt=  300    3 max resid (incl. the buffer)=  8.20048E-15
 Non-SCF case, kpt    4 (  0.35000  0.35000  0.15000), residuals and eigenvalues=
  4.61E-21  7.32E-21  6.89E-21  9.16E-21  5.37E-21  9.21E-21  4.50E-21  9.92E-21
  5.58E-21  4.34E-21  2.66E-21  5.04E-21  4.17E-21  6.96E-21  6.85E-21  7.53E-21
  2.19E-21  5.26E-21  4.00E-21  6.24E-21  1.11E-21  3.33E-21  2.87E-21  3.34E-21
  3.11E-21  4.74E-21  3.74E-21  3.55E-21  2.92E-21  5.57E-21  4.34E-21  4.88E-21
  3.13E-21  2.14E-21  8.10E-21  7.88E-21  8.56E-21  4.75E-21  5.43E-21  9.23E-21
  4.61E-21  5.19E-21  2.97E-21  9.09E-21  3.75E-21  5.10E-21  6.31E-21  3.84E-21
  9.13E-21  6.83E-21  4.81E-21  8.55E-21  8.76E-21  6.07E-21  3.53E-21  5.05E-21
  7.86E-21  2.64E-21  4.34E-21  6.26E-21  2.90E-21  4.31E-21  4.66E-21  3.61E-21
  7.04E-21  6.82E-21  6.01E-21  9.65E-21  4.38E-21  7.37E-21  4.38E-21  3.37E-21
  6.49E-21  8.51E-21  7.22E-21  3.94E-21  5.41E-21  7.85E-21  4.80E-21  1.77E-21
  4.79E-21  7.69E-21  6.34E-21  4.40E-21  8.49E-21  9.90E-21  2.53E-21  7.58E-21
  6.55E-21  6.53E-21  4.65E-21  2.82E-21  7.05E-21  9.49E-21  3.29E-21  4.07E-21
  6.37E-21  4.62E-21  6.65E-21  2.71E-21  7.33E-21  7.40E-21  3.85E-21  1.92E-17
  4.32E-12
 -4.7530E+00 -4.7530E+00 -2.9893E+00 -2.9889E+00 -2.9883E+00 -2.9883E+00
 -2.9879E+00 -2.9873E+00 -1.7084E+00 -1.7075E+00 -1.7066E+00 -1.7050E+00
 -1.7039E+00 -1.7027E+00 -1.7025E+00 -1.7018E+00 -1.7015E+00 -1.7008E+00
 -1.7002E+00 -1.7000E+00 -1.6997E+00 -1.6991E+00 -1.6983E+00 -1.6953E+00
 -1.6951E+00 -1.6941E+00 -1.6936E+00 -1.6935E+00 -1.6842E+00 -1.6833E+00
 -1.6825E+00 -1.6819E+00 -1.6818E+00 -1.6814E+00 -1.6801E+00 -1.6789E+00
 -1.6789E+00 -1.6782E+00 -6.9840E-01 -6.9807E-01 -6.9791E-01 -6.9760E-01
 -6.9704E-01 -6.9681E-01 -6.9651E-01 -6.9626E-01 -6.9610E-01 -6.9610E-01
 -6.9602E-01 -6.9564E-01 -6.9510E-01 -6.9479E-01 -6.9467E-01 -6.9404E-01
 -6.9378E-01 -6.9305E-01 -6.9295E-01 -6.9228E-01 -4.1292E-01 -4.0725E-01
 -4.0290E-01 -3.9561E-01 -3.7923E-01 -3.7771E-01 -2.1843E-01 -2.0997E-01
 -2.0694E-01 -2.0562E-01 -2.0466E-01 -2.0060E-01 -1.9998E-01 -1.9951E-01
 -1.9758E-01 -1.9648E-01 -1.8905E-01 -1.8445E-01 -1.5647E-01 -1.5238E-01
 -1.2173E-01 -1.0954E-01 -9.9698E-02 -9.3695E-02 -6.7450E-02 -6.2115E-02
 -5.2913E-02 -5.0175E-02 -4.7350E-02 -4.0373E-02 -2.6821E-02 -1.6065E-02
 -6.5045E-03 -4.1418E-03  1.0709E-02  1.9931E-02  4.9901E-02  7.4419E-02
  1.6095E-01  1.8853E-01  1.9763E-01  2.0889E-01  2.1435E-01  2.1647E-01
  2.2357E-01  2.3016E-01  2.3935E-01
  prteigrs : nnsclo,ikpt=  300    4 max resid (incl. the buffer)=  4.32395E-12
 Non-SCF case, kpt    5 (  0.30000  0.30000  0.20000), residuals and eigenvalues=
  7.41E-21  8.89E-21  4.22E-21  1.98E-21  7.06E-22  2.51E-21  6.74E-22  6.13E-22
  6.89E-21  3.08E-21  4.10E-21  1.79E-21  4.83E-21  8.65E-21  7.10E-21  7.40E-21
  9.47E-21  8.44E-21  2.03E-21  3.35E-21  6.13E-21  2.55E-21  8.43E-21  3.43E-21
  9.44E-21  3.28E-21  2.72E-21  3.31E-21  3.00E-21  4.40E-21  4.18E-21  5.66E-21
  2.35E-21  6.30E-21  3.82E-21  3.88E-21  2.27E-21  7.08E-21  8.69E-21  5.36E-21
  3.04E-21  6.48E-21  3.35E-21  4.01E-21  8.61E-21  7.09E-21  3.62E-21  8.07E-21
  9.38E-21  8.86E-21  7.58E-21  6.19E-21  3.44E-21  9.98E-21  8.87E-21  3.71E-21
  8.08E-21  3.55E-21  4.48E-21  7.75E-21  4.50E-21  3.12E-21  4.67E-21  6.13E-21
  5.06E-21  7.44E-21  6.54E-21  5.35E-21  6.24E-21  6.69E-21  9.07E-21  3.74E-21
  8.77E-21  4.88E-21  4.64E-21  6.88E-21  3.64E-21  8.62E-21  8.37E-21  5.65E-21
  6.41E-21  4.29E-21  5.58E-21  4.68E-21  3.28E-21  4.39E-21  7.78E-21  7.47E-21
  9.45E-21  5.51E-21  3.26E-21  6.11E-21  2.40E-21  7.98E-21  2.30E-21  5.63E-21
  6.85E-21  4.15E-21  8.56E-21  6.73E-21  5.28E-21  9.54E-21  4.37E-21  2.23E-10
  7.15E-10
 -4.7530E+00 -4.7530E+00 -2.9893E+00 -2.9888E+00 -2.9883E+00 -2.9882E+00
 -2.9881E+00 -2.9881E+00 -1.7082E+00 -1.7079E+00 -1.7078E+00 -1.7073E+00
 -1.7040E+00 -1.7039E+00 -1.7028E+00 -1.7019E+00 -1.7012E+00 -1.7008E+00
 -1.7006E+00 -1.6997E+00 -1.6994E+00 -1.6983E+00 -1.6980E+00 -1.6967E+00
 -1.6955E+00 -1.6949E+00 -1.6946E+00 -1.6926E+00 -1.6864E+00 -1.6839E+00
 -1.6830E+00 -1.6826E+00 -1.6825E+00 -1.6816E+00 -1.6800E+00 -1.6792E+00
 -1.6787E+00 -1.6779E+00 -6.9832E-01 -6.9808E-01 -6.9800E-01 -6.9779E-01
 -6.9698E-01 -6.9694E-01 -6.9668E-01 -6.9628E-01 -6.9619E-01 -6.9612E-01
 -6.9593E-01 -6.9586E-01 -6.9501E-01 -6.9478E-01 -6.9469E-01 -6.9410E-01
 -6.9399E-01 -6.9304E-01 -6.9297E-01 -6.9223E-01 -4.2096E-01 -4.1127E-01
 -4.0608E-01 -3.9709E-01 -3.8197E-01 -3.8054E-01 -2.1852E-01 -2.0802E-01
 -2.0777E-01 -2.0730E-01 -2.0562E-01 -2.0277E-01 -2.0004E-01 -1.9947E-01
 -1.9753E-01 -1.9683E-01 -1.9317E-01 -1.8643E-01 -1.6271E-01 -1.5048E-01
 -1.1297E-01 -1.0895E-01 -9.2156E-02 -8.5378E-02 -7.1869E-02 -5.3845E-02
 -5.2327E-02 -3.2733E-02 -3.0026E-02 -2.3323E-02 -1.5058E-02 -7.0177E-03
  3.7848E-03  1.6694E-02  3.3406E-02  4.1530E-02  6.1447E-02  8.5165E-02
  1.5022E-01  1.7398E-01  1.9260E-01  1.9563E-01  1.9772E-01  2.0299E-01
  2.1485E-01  2.2742E-01  2.2910E-01
  prteigrs : nnsclo,ikpt=  300    5 max resid (incl. the buffer)=  7.14702E-10
 Non-SCF case, kpt    6 (  0.25000  0.25000  0.25000), residuals and eigenvalues=
  7.54E-21  5.59E-21  3.39E-21  8.55E-22  7.09E-21  6.75E-21  3.76E-21  8.55E-21
  5.71E-21  3.41E-21  4.31E-21  3.46E-21  2.43E-21  2.86E-21  7.38E-21  6.00E-21
  5.98E-21  4.54E-21  5.47E-21  3.66E-21  2.40E-21  7.66E-21  3.34E-21  8.75E-21
  4.26E-21  2.99E-21  6.56E-21  5.75E-21  3.59E-21  4.63E-21  3.04E-21  4.72E-21
  6.27E-21  7.06E-21  6.01E-21  3.33E-21  6.76E-21  9.75E-21  7.44E-21  2.77E-21
  8.86E-21  6.81E-21  8.75E-21  8.97E-21  6.62E-21  2.30E-21  4.98E-21  9.20E-21
  2.96E-21  4.92E-21  6.11E-21  4.79E-21  3.49E-21  8.83E-21  6.43E-21  2.75E-21
  5.99E-21  2.91E-21  8.48E-21  3.58E-21  6.34E-21  8.31E-21  2.62E-21  4.99E-21
  6.27E-21  8.80E-21  5.97E-21  6.43E-21  6.58E-21  6.25E-21  7.07E-21  4.30E-21
  4.08E-21  9.90E-21  9.01E-21  5.09E-21  4.38E-21  5.68E-21  3.64E-21  4.75E-21
  6.49E-21  9.27E-21  7.16E-21  4.46E-21  3.04E-21  7.71E-21  5.38E-21  6.76E-21
  3.10E-21  6.96E-21  4.65E-21  7.73E-21  5.14E-21  6.69E-21  7.24E-21  7.69E-21
  3.46E-21  1.99E-21  7.89E-21  6.46E-21  7.82E-21  9.23E-21  3.47E-21  1.11E-16
  1.12E-09
 -4.7530E+00 -4.7530E+00 -2.9889E+00 -2.9888E+00 -2.9883E+00 -2.9878E+00
 -2.9876E+00 -2.9874E+00 -1.7068E+00 -1.7065E+00 -1.7058E+00 -1.7042E+00
 -1.7023E+00 -1.7023E+00 -1.7016E+00 -1.7011E+00 -1.7006E+00 -1.7004E+00
 -1.6998E+00 -1.6995E+00 -1.6988E+00 -1.6988E+00 -1.6981E+00 -1.6957E+00
 -1.6939E+00 -1.6937E+00 -1.6927E+00 -1.6925E+00 -1.6852E+00 -1.6828E+00
 -1.6824E+00 -1.6816E+00 -1.6812E+00 -1.6802E+00 -1.6789E+00 -1.6780E+00
 -1.6778E+00 -1.6773E+00 -6.9801E-01 -6.9791E-01 -6.9761E-01 -6.9749E-01
 -6.9671E-01 -6.9667E-01 -6.9646E-01 -6.9635E-01 -6.9626E-01 -6.9595E-01
 -6.9586E-01 -6.9566E-01 -6.9520E-01 -6.9449E-01 -6.9441E-01 -6.9403E-01
 -6.9349E-01 -6.9277E-01 -6.9271E-01 -6.9247E-01 -4.2932E-01 -4.1599E-01
 -4.1047E-01 -3.9842E-01 -3.8501E-01 -3.8232E-01 -2.1790E-01 -2.0888E-01
 -2.0763E-01 -2.0730E-01 -2.0509E-01 -2.0344E-01 -1.9974E-01 -1.9859E-01
 -1.9638E-01 -1.9630E-01 -1.9307E-01 -1.8514E-01 -1.6311E-01 -1.4384E-01
 -1.0777E-01 -1.0244E-01 -8.2117E-02 -7.8139E-02 -7.5133E-02 -5.3129E-02
 -4.3988E-02 -2.3765E-02 -1.7691E-02 -1.3948E-02  3.5687E-03  7.7813E-03
  1.1988E-02  3.1467E-02  5.7472E-02  6.1468E-02  7.5679E-02  1.0216E-01
  1.3915E-01  1.5465E-01  1.6701E-01  1.7099E-01  1.9089E-01  1.9383E-01
  1.9923E-01  2.1376E-01  2.3316E-01
  prteigrs : nnsclo,ikpt=  300    6 max resid (incl. the buffer)=  1.12113E-09
 Non-SCF case, kpt    7 (  0.20000  0.20000  0.30000), residuals and eigenvalues=
  6.85E-21  3.19E-21  5.46E-21  2.17E-21  8.04E-22  2.91E-21  7.49E-21  5.30E-21
  5.75E-21  3.40E-21  2.88E-21  6.20E-21  8.41E-21  9.02E-21  2.71E-21  5.82E-21
  2.90E-21  5.15E-21  4.30E-21  4.22E-21  2.99E-21  7.38E-21  4.72E-21  2.28E-21
  4.84E-21  4.33E-21  2.08E-21  4.28E-21  2.53E-21  2.64E-21  5.81E-21  3.18E-21
  5.91E-21  6.97E-21  7.57E-21  3.12E-21  5.75E-21  3.47E-21  6.56E-21  8.56E-21
  5.44E-21  7.78E-21  3.88E-21  4.58E-21  7.24E-21  8.50E-21  8.37E-21  5.43E-21
  5.56E-21  5.74E-21  4.55E-21  8.88E-21  9.20E-21  4.57E-21  3.24E-21  5.44E-21
  6.70E-21  8.05E-21  5.42E-21  6.73E-21  2.77E-21  9.09E-21  4.03E-21  4.89E-21
  6.01E-21  3.61E-21  8.62E-21  8.43E-21  7.20E-21  6.95E-21  7.04E-21  8.05E-21
  7.18E-21  4.89E-21  4.60E-21  2.08E-21  8.79E-21  3.40E-21  3.36E-21  3.43E-21
  5.77E-21  1.91E-21  4.27E-21  6.94E-21  5.54E-21  4.45E-21  8.33E-21  6.88E-21
  7.10E-21  2.71E-21  6.08E-21  7.68E-21  9.13E-21  5.98E-21  9.31E-21  5.32E-21
  6.39E-21  1.56E-21  5.39E-21  7.61E-21  3.64E-21  5.64E-21  5.63E-21  7.92E-16
  1.04E-07
 -4.7530E+00 -4.7530E+00 -2.9889E+00 -2.9884E+00 -2.9883E+00 -2.9879E+00
 -2.9875E+00 -2.9867E+00 -1.7072E+00 -1.7071E+00 -1.7061E+00 -1.7038E+00
 -1.7025E+00 -1.7025E+00 -1.7017E+00 -1.7009E+00 -1.7004E+00 -1.6997E+00
 -1.6994E+00 -1.6989E+00 -1.6978E+00 -1.6976E+00 -1.6959E+00 -1.6951E+00
 -1.6938E+00 -1.6935E+00 -1.6920E+00 -1.6906E+00 -1.6841E+00 -1.6823E+00
 -1.6822E+00 -1.6817E+00 -1.6815E+00 -1.6786E+00 -1.6785E+00 -1.6777E+00
 -1.6774E+00 -1.6757E+00 -6.9833E-01 -6.9814E-01 -6.9695E-01 -6.9679E-01
 -6.9678E-01 -6.9656E-01 -6.9651E-01 -6.9638E-01 -6.9624E-01 -6.9597E-01
 -6.9590E-01 -6.9530E-01 -6.9524E-01 -6.9448E-01 -6.9444E-01 -6.9405E-01
 -6.9284E-01 -6.9279E-01 -6.9275E-01 -6.9256E-01 -4.3709E-01 -4.2084E-01
 -4.1525E-01 -3.9972E-01 -3.8812E-01 -3.8321E-01 -2.1717E-01 -2.1011E-01
 -2.0904E-01 -2.0821E-01 -2.0733E-01 -2.0113E-01 -1.9872E-01 -1.9761E-01
 -1.9676E-01 -1.9526E-01 -1.8894E-01 -1.8087E-01 -1.5758E-01 -1.3357E-01
 -1.0647E-01 -9.0823E-02 -8.3970E-02 -7.0055E-02 -6.3671E-02 -4.9713E-02
 -3.3250E-02 -1.6792E-02 -1.4188E-02 -6.1060E-03  1.5048E-02  1.5626E-02
  1.9404E-02  4.1116E-02  5.7154E-02  7.0462E-02  8.0744E-02  1.0820E-01
  1.4259E-01  1.4826E-01  1.6226E-01  1.6771E-01  1.8114E-01  1.8250E-01
  1.9193E-01  2.1581E-01  2.3752E-01
  prteigrs : nnsclo,ikpt=  300    7 max resid (incl. the buffer)=  1.04424E-07
 Non-SCF case, kpt    8 (  0.15000  0.15000  0.35000), residuals and eigenvalues=
  8.46E-21  6.02E-21  5.63E-21  6.84E-21  5.08E-21  9.71E-22  6.12E-21  8.61E-21
  2.22E-21  5.57E-21  2.00E-21  4.10E-21  2.88E-21  3.59E-21  3.77E-21  5.32E-21
  6.88E-21  2.61E-21  1.79E-21  2.75E-21  8.62E-21  6.51E-21  2.49E-21  9.66E-21
  3.42E-21  9.58E-21  4.61E-21  8.32E-21  3.95E-21  2.91E-21  3.28E-21  4.17E-21
  6.77E-21  6.48E-21  3.38E-21  5.92E-21  6.86E-21  9.04E-21  6.92E-21  8.83E-21
  4.64E-21  5.78E-21  5.47E-21  3.87E-21  3.84E-21  4.32E-21  3.82E-21  2.71E-21
  4.78E-21  3.49E-21  9.27E-21  3.59E-21  9.42E-21  9.69E-21  6.26E-21  3.31E-21
  3.57E-21  4.82E-21  8.00E-21  3.61E-21  7.35E-21  7.53E-21  7.53E-21  6.37E-21
  7.66E-21  8.34E-21  9.13E-21  4.35E-21  5.69E-21  3.97E-21  6.82E-21  3.46E-21
  3.87E-21  9.04E-21  2.53E-21  3.05E-21  3.83E-21  4.73E-21  5.55E-21  5.08E-21
  6.46E-21  8.16E-21  6.67E-21  9.76E-21  3.45E-21  9.65E-21  4.40E-21  5.85E-21
  7.68E-21  9.76E-21  6.10E-21  7.16E-21  5.45E-21  6.02E-21  3.92E-21  8.07E-21
  5.86E-21  4.10E-21  4.12E-21  7.54E-21  8.87E-21  6.42E-21  6.77E-21  2.26E-12
  2.24E-09
 -4.7530E+00 -4.7530E+00 -2.9897E+00 -2.9883E+00 -2.9882E+00 -2.9881E+00
 -2.9877E+00 -2.9877E+00 -1.7073E+00 -1.7070E+00 -1.7058E+00 -1.7042E+00
 -1.7041E+00 -1.7033E+00 -1.7029E+00 -1.7024E+00 -1.7021E+00 -1.7013E+00
 -1.7003E+00 -1.6999E+00 -1.6993E+00 -1.6993E+00 -1.6986E+00 -1.6956E+00
 -1.6946E+00 -1.6930E+00 -1.6927E+00 -1.6925E+00 -1.6846E+00 -1.6844E+00
 -1.6828E+00 -1.6828E+00 -1.6814E+00 -1.6814E+00 -1.6797E+00 -1.6782E+00
 -1.6775E+00 -1.6771E+00 -6.9849E-01 -6.9823E-01 -6.9722E-01 -6.9707E-01
 -6.9695E-01 -6.9674E-01 -6.9672E-01 -6.9653E-01 -6.9618E-01 -6.9613E-01
 -6.9588E-01 -6.9576E-01 -6.9565E-01 -6.9448E-01 -6.9442E-01 -6.9421E-01
 -6.9313E-01 -6.9297E-01 -6.9280E-01 -6.9269E-01 -4.4364E-01 -4.2526E-01
 -4.1959E-01 -4.0102E-01 -3.9080E-01 -3.8370E-01 -2.1666E-01 -2.1158E-01
 -2.1122E-01 -2.1074E-01 -2.0982E-01 -2.0108E-01 -1.9879E-01 -1.9789E-01
 -1.9704E-01 -1.9369E-01 -1.8155E-01 -1.7344E-01 -1.4743E-01 -1.2186E-01
 -1.0437E-01 -8.7239E-02 -7.9131E-02 -5.6894E-02 -5.1664E-02 -4.3571E-02
 -2.2615E-02 -2.2138E-02 -4.9351E-03  8.7542E-04  1.0694E-02  1.9997E-02
  2.6285E-02  2.7626E-02  4.4173E-02  6.2620E-02  6.8539E-02  1.0076E-01
  1.4614E-01  1.6345E-01  1.6914E-01  1.7152E-01  1.7916E-01  1.9980E-01
  2.0743E-01  2.2202E-01  2.3033E-01
  prteigrs : nnsclo,ikpt=  300    8 max resid (incl. the buffer)=  2.23616E-09
 Non-SCF case, kpt    9 (  0.10000  0.10000  0.40000), residuals and eigenvalues=
  2.44E-21  9.68E-21  1.23E-21  1.50E-21  2.67E-21  3.26E-21  8.97E-22  4.33E-21
  3.06E-21  3.01E-21  2.98E-21  4.46E-21  6.36E-21  3.35E-21  2.37E-21  9.51E-21
  6.95E-21  2.74E-21  3.25E-21  9.67E-21  7.94E-21  2.68E-21  3.09E-21  4.40E-21
  4.89E-21  3.56E-21  3.74E-21  8.61E-21  8.87E-21  7.67E-21  9.26E-21  4.48E-21
  8.20E-21  9.41E-21  2.32E-21  3.49E-21  6.55E-21  9.97E-21  2.45E-21  6.99E-21
  1.96E-21  4.75E-21  3.90E-21  8.53E-21  7.02E-21  3.74E-21  2.07E-21  3.08E-21
  2.35E-21  2.34E-21  9.22E-21  4.31E-21  3.77E-21  4.05E-21  6.15E-21  3.86E-21
  4.37E-21  2.50E-21  4.86E-21  7.73E-21  4.97E-21  3.22E-21  3.98E-21  5.23E-21
  7.36E-21  4.08E-21  8.58E-21  3.56E-21  4.29E-21  7.91E-21  7.85E-21  9.65E-21
  4.17E-21  6.82E-21  6.33E-21  8.90E-21  3.24E-21  5.82E-21  4.79E-21  5.41E-21
  4.71E-21  7.52E-21  2.56E-21  4.39E-21  2.29E-21  7.76E-21  2.33E-21  2.12E-21
  5.21E-21  2.36E-21  7.49E-21  5.19E-21  1.59E-21  1.41E-21  8.69E-21  8.01E-21
  4.60E-21  9.33E-21  7.15E-21  2.76E-21  4.35E-21  4.92E-21  9.59E-21  4.77E-16
  5.57E-07
 -4.7530E+00 -4.7530E+00 -2.9903E+00 -2.9896E+00 -2.9882E+00 -2.9879E+00
 -2.9878E+00 -2.9875E+00 -1.7084E+00 -1.7083E+00 -1.7068E+00 -1.7062E+00
 -1.7046E+00 -1.7043E+00 -1.7034E+00 -1.7029E+00 -1.7026E+00 -1.7021E+00
 -1.7014E+00 -1.7012E+00 -1.7006E+00 -1.6999E+00 -1.6989E+00 -1.6961E+00
 -1.6958E+00 -1.6939E+00 -1.6927E+00 -1.6925E+00 -1.6856E+00 -1.6848E+00
 -1.6832E+00 -1.6824E+00 -1.6823E+00 -1.6821E+00 -1.6811E+00 -1.6803E+00
 -1.6781E+00 -1.6777E+00 -6.9887E-01 -6.9859E-01 -6.9730E-01 -6.9719E-01
 -6.9717E-01 -6.9701E-01 -6.9682E-01 -6.9662E-01 -6.9627E-01 -6.9614E-01
 -6.9610E-01 -6.9588E-01 -6.9584E-01 -6.9448E-01 -6.9445E-01 -6.9433E-01
[...]
           diemac      1.20000000E+01
        dosdeltae1     0.00000000E+00 Hartree
        dosdeltae2     0.00000000E+00 Hartree
        dosdeltae3     1.00000000E-03 Hartree
             ecut      2.25000000E+01 Hartree
           etotal1    -1.4529449444E+03
           etotal3    -1.4529449444E+03
            fcart1    -0.0000000000E+00 -0.0000000000E+00 -1.4321263291E-02
                      -0.0000000000E+00 -0.0000000000E+00 -1.9388265327E-02
                      -0.0000000000E+00 -0.0000000000E+00  1.4037493849E-02
                      -0.0000000000E+00 -0.0000000000E+00  1.1134738161E-02
                      -0.0000000000E+00 -0.0000000000E+00 -1.5690831518E-02
                      -0.0000000000E+00 -0.0000000000E+00 -1.6178996553E-02
                      -0.0000000000E+00 -0.0000000000E+00  1.1917027425E-02
                      -0.0000000000E+00 -0.0000000000E+00 -3.2280527372E-03
                      -0.0000000000E+00 -0.0000000000E+00  1.2901498966E-02
                      -0.0000000000E+00 -0.0000000000E+00 -1.2521339805E-02
                      -0.0000000000E+00 -0.0000000000E+00  1.5668995416E-02
                      -0.0000000000E+00 -0.0000000000E+00  1.5668995416E-02
-          fftalg         112
           getden1          0
           getden2          1
           getden3          1
           getwfk1          0
           getwfk2          0
           getwfk3          1
           iatsph3       1    5   10   11
             iscf1         17
             iscf2         -2
             iscf3         -3
           istwfk2       7    0    0    0    0    0    0    0    0    0
                         4    0    0    0    0    0    0    0    0    0
                         0    0    2    0    0    0    0    0    0    0
                         0    0    0    0    0    0    0    0    0    0
                         9    0    0    0    0    0    0    0    8    0
              ixc     -101130
           jdtset        1    2    3
              kpt1     6.25000000E-02  6.25000000E-02  5.00000000E-01
                       1.87500000E-01  6.25000000E-02  5.00000000E-01
                       3.12500000E-01  6.25000000E-02  5.00000000E-01
                       4.37500000E-01  6.25000000E-02  5.00000000E-01
                       1.87500000E-01  1.87500000E-01  5.00000000E-01
                       3.12500000E-01  1.87500000E-01  5.00000000E-01
                       4.37500000E-01  1.87500000E-01  5.00000000E-01
                       3.12500000E-01  3.12500000E-01  5.00000000E-01
                       4.37500000E-01  3.12500000E-01  5.00000000E-01
                       4.37500000E-01  4.37500000E-01  5.00000000E-01
              kpt2     5.00000000E-01  5.00000000E-01  0.00000000E+00
                       4.50000000E-01  4.50000000E-01  5.00000000E-02
                       4.00000000E-01  4.00000000E-01  1.00000000E-01
                       3.50000000E-01  3.50000000E-01  1.50000000E-01
                       3.00000000E-01  3.00000000E-01  2.00000000E-01
                       2.50000000E-01  2.50000000E-01  2.50000000E-01
                       2.00000000E-01  2.00000000E-01  3.00000000E-01
                       1.50000000E-01  1.50000000E-01  3.50000000E-01
                       1.00000000E-01  1.00000000E-01  4.00000000E-01
                       5.00000000E-02  5.00000000E-02  4.50000000E-01
                       0.00000000E+00  0.00000000E+00  5.00000000E-01
                       0.00000000E+00  0.00000000E+00  4.58333333E-01
                       0.00000000E+00  0.00000000E+00  4.16666667E-01
                       0.00000000E+00  0.00000000E+00  3.75000000E-01
                       0.00000000E+00  0.00000000E+00  3.33333333E-01
                       0.00000000E+00  0.00000000E+00  2.91666667E-01
                       0.00000000E+00  0.00000000E+00  2.50000000E-01
                       0.00000000E+00  0.00000000E+00  2.08333333E-01
                       0.00000000E+00  0.00000000E+00  1.66666667E-01
                       0.00000000E+00  0.00000000E+00  1.25000000E-01
                       0.00000000E+00  0.00000000E+00  8.33333333E-02
                       0.00000000E+00  0.00000000E+00  4.16666667E-02
                       0.00000000E+00  0.00000000E+00  0.00000000E+00
                       2.77777778E-02  2.77777778E-02  2.77777778E-02
                       5.55555556E-02  5.55555556E-02  5.55555556E-02
                       8.33333333E-02  8.33333333E-02  8.33333333E-02
                       1.11111111E-01  1.11111111E-01  1.11111111E-01
                       1.38888889E-01  1.38888889E-01  1.38888889E-01
                       1.66666667E-01  1.66666667E-01  1.66666667E-01
                       1.94444444E-01  1.94444444E-01  1.94444444E-01
                       2.22222222E-01  2.22222222E-01  2.22222222E-01
                       2.50000000E-01  2.50000000E-01  2.50000000E-01
                       2.77777778E-01  2.77777778E-01  2.77777778E-01
                       3.05555556E-01  3.05555556E-01  3.05555556E-01
                       3.33333333E-01  3.33333333E-01  3.33333333E-01
                       3.61111111E-01  3.61111111E-01  3.61111111E-01
                       3.88888889E-01  3.88888889E-01  3.88888889E-01
                       4.16666667E-01  4.16666667E-01  4.16666667E-01
                       4.44444444E-01  4.44444444E-01  4.44444444E-01
                       4.72222222E-01  4.72222222E-01  4.72222222E-01
                       5.00000000E-01  5.00000000E-01  5.00000000E-01
                       4.37500000E-01  5.00000000E-01  5.00000000E-01
                       3.75000000E-01  5.00000000E-01  5.00000000E-01
                       3.12500000E-01  5.00000000E-01  5.00000000E-01
                       2.50000000E-01  5.00000000E-01  5.00000000E-01
                       1.87500000E-01  5.00000000E-01  5.00000000E-01
                       1.25000000E-01  5.00000000E-01  5.00000000E-01
                       6.25000000E-02  5.00000000E-01  5.00000000E-01
                       0.00000000E+00  5.00000000E-01  5.00000000E-01
                       0.00000000E+00  5.00000000E-01  4.37500000E-01
              kpt3     6.25000000E-02  6.25000000E-02  5.00000000E-01
                       1.87500000E-01  6.25000000E-02  5.00000000E-01
                       3.12500000E-01  6.25000000E-02  5.00000000E-01
                       4.37500000E-01  6.25000000E-02  5.00000000E-01
                       1.87500000E-01  1.87500000E-01  5.00000000E-01
                       3.12500000E-01  1.87500000E-01  5.00000000E-01
                       4.37500000E-01  1.87500000E-01  5.00000000E-01
                       3.12500000E-01  3.12500000E-01  5.00000000E-01
                       4.37500000E-01  3.12500000E-01  5.00000000E-01
                       4.37500000E-01  4.37500000E-01  5.00000000E-01
                       outvar_i_n : Printing only first  50 k-points.
           kptopt1          1
           kptopt2         -5
           kptopt3          1
         kptrlatt        8    0    0      0    8    0      0    0    1
          kptrlen1     6.20994534E+01
          kptrlen2     3.00000000E+01
          kptrlen3     6.20994534E+01
P           mkmem1          2
P           mkmem2         10
P           mkmem3          2
            natom          12
           natsph3       4
            nband1        105
            nband2        105
            nband3        105
           nbdbuf1          0
           nbdbuf2          2
           nbdbuf3          2
           ndtset           3
            ngfft          36      36     192
             nkpt1         10
             nkpt2         57
             nkpt3         10
            nstep1       1000
            nstep2        300
            nstep3        300
             nsym           8
           ntypat           3
              occ      2.000000  2.000000  2.000000  2.000000  2.000000  2.000000
                       2.000000  2.000000  2.000000  2.000000  2.000000  2.000000
                       2.000000  2.000000  2.000000  2.000000  2.000000  2.000000
                       2.000000  2.000000  2.000000  2.000000  2.000000  2.000000
                       2.000000  2.000000  2.000000  2.000000  2.000000  2.000000
                       2.000000  2.000000  2.000000  2.000000  2.000000  2.000000
                       2.000000  2.000000  2.000000  2.000000  2.000000  2.000000
                       2.000000  2.000000  2.000000  2.000000  2.000000  2.000000
                       2.000000  2.000000  2.000000  2.000000  2.000000  2.000000
                       2.000000  2.000000  2.000000  2.000000  2.000000  2.000000
                       2.000000  2.000000  2.000000  2.000000  2.000000  2.000000
                       2.000000  2.000000  2.000000  2.000000  2.000000  2.000000
                       2.000000  2.000000  2.000000  2.000000  2.000000  2.000000
                       2.000000  2.000000  2.000000  2.000000  2.000000  2.000000
                       2.000000  2.000000  2.000000  2.000000  2.000000  2.000000
                       2.000000  2.000000  2.000000  2.000000  2.000000  2.000000
                       0.000000  0.000000  0.000000  0.000000  0.000000  0.000000
                       0.000000  0.000000  0.000000
           prtcif           1
           prtdos1          0
           prtdos2          0
           prtdos3          3
            rprim      1.0000000000E+00  0.0000000000E+00  0.0000000000E+00
                       0.0000000000E+00  1.0000000000E+00  0.0000000000E+00
                       0.0000000000E+00  0.0000000000E+00  5.7277782079E+00
           shiftk      5.00000000E-01  5.00000000E-01  5.00000000E-01
          spgroup          99
           strten1     1.5033290694E-02  1.5033290694E-02  1.4920138596E-02
                       0.0000000000E+00  0.0000000000E+00  0.0000000000E+00
           symrel      1  0  0   0  1  0   0  0  1       1  0  0   0 -1  0   0  0  1
                      -1  0  0   0 -1  0   0  0  1      -1  0  0   0  1  0   0  0  1
                       0  1  0   1  0  0   0  0  1       0  1  0  -1  0  0   0  0  1
                       0 -1  0  -1  0  0   0  0  1       0 -1  0   1  0  0   0  0  1
            tnons      0.0000000  0.0000000  0.0000000     0.0000000  0.0000000  0.0000000
                       0.0000000  0.0000000  0.0000000     0.0000000  0.0000000  0.0000000
                       0.5000000  0.5000000  0.0000000     0.5000000  0.5000000  0.0000000
                       0.5000000  0.5000000  0.0000000     0.5000000  0.5000000  0.0000000
           tolwfr      1.00000000E-20
            typat      1  1  1  1  2  2  2  2  2  2  3  3
           vdw_xc           5
              wtk1       0.06250    0.12500    0.12500    0.12500    0.06250    0.12500
                         0.12500    0.06250    0.12500    0.06250
              wtk2       1.00000    1.00000    1.00000    1.00000    1.00000    1.00000
                         1.00000    1.00000    1.00000    1.00000    1.00000    1.00000
                         1.00000    1.00000    1.00000    1.00000    1.00000    1.00000
                         1.00000    1.00000    1.00000    1.00000    1.00000    1.00000
                         1.00000    1.00000    1.00000    1.00000    1.00000    1.00000
                         1.00000    1.00000    1.00000    1.00000    1.00000    1.00000
                         1.00000    1.00000    1.00000    1.00000    1.00000    1.00000
                         1.00000    1.00000    1.00000    1.00000    1.00000    1.00000
                         1.00000    1.00000
              wtk3       0.06250    0.12500    0.12500    0.12500    0.06250    0.12500
                         0.12500    0.06250    0.12500    0.06250
                       outvars : Printing only first  50 k-points.
           xangst      2.0538509643E+00  0.0000000000E+00  4.6664740448E+00
                       0.0000000000E+00  2.0538509643E+00  7.4160979462E+00
                       2.0538509643E+00  0.0000000000E+00  1.0102196232E+01
                       0.0000000000E+00  2.0538509643E+00  1.2851820134E+01
                       0.0000000000E+00  2.0538509643E+00  4.6982368524E+00
                       2.0538509643E+00  0.0000000000E+00  7.3843351386E+00
                       0.0000000000E+00  2.0538509643E+00  1.0133959040E+01
                       2.0538509643E+00  0.0000000000E+00  1.2820057326E+01
                       2.0538509643E+00  0.0000000000E+00  1.5871522011E+01
                       0.0000000000E+00  2.0538509643E+00  1.8861531546E+01
                       2.0538509643E+00  2.0538509643E+00  1.7366538543E+01
                       0.0000000000E+00  0.0000000000E+00  1.7366538543E+01
            xcart      3.8812158402E+00  0.0000000000E+00  8.8183579509E+00
                       0.0000000000E+00  3.8812158402E+00  1.4014394093E+01
                       3.8812158402E+00  0.0000000000E+00  1.9090384220E+01
                       0.0000000000E+00  3.8812158402E+00  2.4286420362E+01
                       0.0000000000E+00  3.8812158402E+00  8.8783809584E+00
                       3.8812158402E+00  0.0000000000E+00  1.3954371085E+01
                       0.0000000000E+00  3.8812158402E+00  1.9150407227E+01
                       3.8812158402E+00  0.0000000000E+00  2.4226397354E+01
                       3.8812158402E+00  0.0000000000E+00  2.9992829913E+01
                       0.0000000000E+00  3.8812158402E+00  3.5643129068E+01
                       3.8812158402E+00  3.8812158402E+00  3.2818001722E+01
                       0.0000000000E+00  0.0000000000E+00  3.2818001722E+01
             xred      5.0000000000E-01  0.0000000000E+00  1.9833700000E-01
                       0.0000000000E+00  5.0000000000E-01  3.1520300000E-01
                       5.0000000000E-01  0.0000000000E+00  4.2936900000E-01
                       0.0000000000E+00  5.0000000000E-01  5.4623500000E-01
                       0.0000000000E+00  5.0000000000E-01  1.9968700000E-01
                       5.0000000000E-01  0.0000000000E+00  3.1385300000E-01
                       0.0000000000E+00  5.0000000000E-01  4.3071900000E-01
                       5.0000000000E-01  0.0000000000E+00  5.4488500000E-01
                       5.0000000000E-01  0.0000000000E+00  6.7458000000E-01
                       0.0000000000E+00  5.0000000000E-01  8.0166300000E-01
                       5.0000000000E-01  5.0000000000E-01  7.3812200000E-01
                       0.0000000000E+00  0.0000000000E+00  7.3812200000E-01
            znucl       50.00000   34.00000   30.00000

================================================================================


- Timing analysis has been suppressed with timopt=0



================================================================================

 Suggested references for the acknowledgment of ABINIT usage.

 The users of ABINIT have little formal obligations with respect to the ABINIT group
 (those specified in the GNU General Public License, http://www.gnu.org/copyleft/gpl.txt).
 However, it is common practice in the scientific literature,
 to acknowledge the efforts of people that have made the research possible.
 In this spirit, please find below suggested citations of work written by ABINIT developers,
 corresponding to implementations inside of ABINIT that you have used in the present run.
 Note also that it will be of great value to readers of publications presenting these results,
 to read papers enabling them to understand the theoretical formalism and details
 of the ABINIT implementation.
 For information on why they are suggested, see also https://docs.abinit.org/theory/acknowledgments.
-
- [1] Libxc: A library of exchange and correlation functionals for density functional theory.
- M.A.L. Marques, M.J.T. Oliveira, T. Burnus, Computer Physics Communications 183, 2227 (2012).
- Comment: to be cited when LibXC is used (negative value of ixc)
- Strong suggestion to cite this paper.
- DOI and bibtex: see https://docs.abinit.org/theory/bibliography/#marques2012
-
- [2] The Abinit project: Impact, environment and recent developments.
- Computer Phys. Comm. 248, 107042 (2020).
- X.Gonze, B. Amadon, G. Antonius, F.Arnardi, L.Baguet, J.-M.Beuken,
- J.Bieder, F.Bottin, J.Bouchet, E.Bousquet, N.Brouwer, F.Bruneval,
- G.Brunin, T.Cavignac, J.-B. Charraud, Wei Chen, M.Cote, S.Cottenier,
- J.Denier, G.Geneste, Ph.Ghosez, M.Giantomassi, Y.Gillet, O.Gingras,
- D.R.Hamann, G.Hautier, Xu He, N.Helbig, N.Holzwarth, Y.Jia, F.Jollet,
- W.Lafargue-Dit-Hauret, K.Lejaeghere, M.A.L.Marques, A.Martin, C.Martins,
- H.P.C. Miranda, F.Naccarato, K. Persson, G.Petretto, V.Planes, Y.Pouillon,
- S.Prokhorenko, F.Ricci, G.-M.Rignanese, A.H.Romero, M.M.Schmitt, M.Torrent,
- M.J.van Setten, B.Van Troeye, M.J.Verstraete, G.Zerah and J.W.Zwanzig
- Comment: the fifth generic paper describing the ABINIT project.
- Note that a version of this paper, that is not formatted for Computer Phys. Comm. 
- is available at https://www.abinit.org/sites/default/files/ABINIT20.pdf .
- The licence allows the authors to put it on the Web.
- DOI and bibtex: see https://docs.abinit.org/theory/bibliography/#gonze2020
-
- [3] Optimized norm-conserving Vanderbilt pseudopotentials.
- D.R. Hamann, Phys. Rev. B 88, 085117 (2013).
- Comment: Some pseudopotential generated using the ONCVPSP code were used.
- DOI and bibtex: see https://docs.abinit.org/theory/bibliography/#hamann2013
-
- [4] ABINIT: Overview, and focus on selected capabilities
- J. Chem. Phys. 152, 124102 (2020).
- A. Romero, D.C. Allan, B. Amadon, G. Antonius, T. Applencourt, L.Baguet,
- J.Bieder, F.Bottin, J.Bouchet, E.Bousquet, F.Bruneval,
- G.Brunin, D.Caliste, M.Cote,
- J.Denier, C. Dreyer, Ph.Ghosez, M.Giantomassi, Y.Gillet, O.Gingras,
- D.R.Hamann, G.Hautier, F.Jollet, G. Jomard,
- A.Martin, 
- H.P.C. Miranda, F.Naccarato, G.Petretto, N.A. Pike, V.Planes,
- S.Prokhorenko, T. Rangel, F.Ricci, G.-M.Rignanese, M.Royo, M.Stengel, M.Torrent,
- M.J.van Setten, B.Van Troeye, M.J.Verstraete, J.Wiktor, J.W.Zwanziger, and X.Gonze.
- Comment: a global overview of ABINIT, with focus on selected capabilities .
- Note that a version of this paper, that is not formatted for J. Chem. Phys 
- is available at https://www.abinit.org/sites/default/files/ABINIT20_JPC.pdf .
- The licence allows the authors to put it on the Web.
- DOI and bibtex: see https://docs.abinit.org/theory/bibliography/#romero2020
-
- [5] Recent developments in the ABINIT software package.
- Computer Phys. Comm. 205, 106 (2016).
- X.Gonze, F.Jollet, F.Abreu Araujo, D.Adams, B.Amadon, T.Applencourt,
- C.Audouze, J.-M.Beuken, J.Bieder, A.Bokhanchuk, E.Bousquet, F.Bruneval
- D.Caliste, M.Cote, F.Dahm, F.Da Pieve, M.Delaveau, M.Di Gennaro,
- B.Dorado, C.Espejo, G.Geneste, L.Genovese, A.Gerossier, M.Giantomassi,
- Y.Gillet, D.R.Hamann, L.He, G.Jomard, J.Laflamme Janssen, S.Le Roux,
- A.Levitt, A.Lherbier, F.Liu, I.Lukacevic, A.Martin, C.Martins,
- M.J.T.Oliveira, S.Ponce, Y.Pouillon, T.Rangel, G.-M.Rignanese,
- A.H.Romero, B.Rousseau, O.Rubel, A.A.Shukri, M.Stankovski, M.Torrent,
- M.J.Van Setten, B.Van Troeye, M.J.Verstraete, D.Waroquier, J.Wiktor,
- B.Xu, A.Zhou, J.W.Zwanziger.
- Comment: the fourth generic paper describing the ABINIT project.
- Note that a version of this paper, that is not formatted for Computer Phys. Comm. 
- is available at https://www.abinit.org/sites/default/files/ABINIT16.pdf .
- The licence allows the authors to put it on the Web.
- DOI and bibtex: see https://docs.abinit.org/theory/bibliography/#gonze2016
-
- Proc.   0 individual time (sec): cpu=       7325.9  wall=       7326.1

================================================================================

 Calculation completed.
.Delivered   0 WARNINGs and   0 COMMENTs to log file.
+Overall time at end (sec) : cpu=      43955.6  wall=      43956.5
