  ABINIT 9.2.2
  
 DeprecationWarning: 

     The files file has been deprecated in Abinit9 and will be removed in Abinit10.
     Use the syntax `abinit t01.abi` where t01.abi is an input with pseudopotenials.

            pseudos = "al.psp8, as.psp8"


  Give name for formatted input file: 
Cs2TiI6.in
  Give name for formatted output file:
Cs2TiI6.out
  Give root name for generic input files:
Cs2TiI6i
  Give root name for generic output files:
Cs2TiI6o
  Give root name for generic temporary files:
Cs2TiI6

.Version 9.2.2 of ABINIT 
.(MPI version, prepared for a x86_64_linux_gnu9.3 computer) 

.Copyright (C) 1998-2020 ABINIT group . 
 ABINIT comes with ABSOLUTELY NO WARRANTY.
 It is free software, and you are welcome to redistribute it
 under certain conditions (GNU General Public License,
 see ~abinit/COPYING or http://www.gnu.org/copyleft/gpl.txt).

 ABINIT is a project of the Universite Catholique de Louvain,
 Corning Inc. and other collaborators, see ~abinit/doc/developers/contributors.txt .
 Please read https://docs.abinit.org/theory/acknowledgments for suggested
 acknowledgments of the ABINIT effort.
 For more information, see https://www.abinit.org .

.Starting date : Mon 26 Feb 2024.
- ( at 08h25 )
  
- The starting date is more than 3 years after the initial release
- of this version of ABINIT, namely Nov 2020.
- This version of ABINIT is not supported anymore.
- Action: please, switch to a more recent version of ABINIT.

 ++++++++++++++++++++++++++++++++++++++++++++++++++++++++++++++++++++++++++++++

 === Build Information === 
  Version       : 9.2.2
  Build target  : x86_64_linux_gnu9.3
  Build date    : 20210501

 === Compiler Suite === 
  C compiler       : gnu9.3
  C++ compiler     : generic0.0
  Fortran compiler : gnu9.3
  CFLAGS           : -g -O2 -mtune=native -march=native
  CXXFLAGS         : 
  FCFLAGS          : -g -ffree-line-length-none
  FC_LDFLAGS       : 

 === Optimizations === 
  Debug level        : basic
  Optimization level : standard
  Architecture       : unknown_unknown

 === Multicore === 
  Parallel build : yes
  Parallel I/O   : yes
  openMP support : 
  GPU support    : 

 === Connectors / Fallbacks === 
  LINALG flavor  : netlib
  FFT flavor     : goedecker
  HDF5           : yes
  NetCDF         : yes
  NetCDF Fortran : yes
  LibXC          : yes
  Wannier90      : no

 === Experimental features === 
  Exports             : 
  GW double-precision : 

 ++++++++++++++++++++++++++++++++++++++++++++++++++++++++++++++++++++++++++++++


 ++++++++++++++++++++++++++++++++++++++++++++++++++++++++++++++++++++++++++++++
 Default optimizations:
   -O2 -mtune=native -march=native


 Optimizations for 43_ptgroups:
   -O0


 ++++++++++++++++++++++++++++++++++++++++++++++++++++++++++++++++++++++++++++++


 ++++++++++++++++++++++++++++++++++++++++++++++++++++++++++++++++++++++++++++++
 CPP options activated during the build:

                    CC_GNU                    FC_GNU HAVE_FC_ALLOCATABLE_DT...
 
             HAVE_FC_ASYNC         HAVE_FC_BACKTRACE  HAVE_FC_COMMAND_ARGUMENT
 
      HAVE_FC_COMMAND_LINE        HAVE_FC_CONTIGUOUS           HAVE_FC_CPUTIME
 
              HAVE_FC_EXIT             HAVE_FC_FLUSH             HAVE_FC_GAMMA
 
            HAVE_FC_GETENV   HAVE_FC_IEEE_ARITHMETIC   HAVE_FC_IEEE_EXCEPTIONS
 
          HAVE_FC_INT_QUAD             HAVE_FC_IOMSG     HAVE_FC_ISO_C_BINDING
 
  HAVE_FC_ISO_FORTRAN_2008        HAVE_FC_LONG_LINES        HAVE_FC_MOVE_ALLOC
 
  HAVE_FC_ON_THE_FLY_SHAPE           HAVE_FC_PRIVATE         HAVE_FC_PROTECTED
 
           HAVE_FC_SHIFTLR         HAVE_FC_STREAM_IO            HAVE_FC_SYSTEM
 
          HAVE_FORTRAN2003                 HAVE_HDF5        HAVE_LIBPAW_ABINIT
 
      HAVE_LIBTETRA_ABINIT                HAVE_LIBXC                  HAVE_MPI
 
                 HAVE_MPI2       HAVE_MPI_IALLGATHER       HAVE_MPI_IALLREDUCE
 
        HAVE_MPI_IALLTOALL       HAVE_MPI_IALLTOALLV           HAVE_MPI_IBCAST
 
         HAVE_MPI_IGATHERV        HAVE_MPI_INTEGER16               HAVE_MPI_IO
 
 HAVE_MPI_TYPE_CREATE_S...               HAVE_NETCDF       HAVE_NETCDF_FORTRAN
 
             HAVE_OS_LINUX         HAVE_TIMER_ABINIT                            
 ++++++++++++++++++++++++++++++++++++++++++++++++++++++++++++++++++++++++++++++

- input  file    -> Cs2TiI6.in
- output file    -> Cs2TiI6.out
- root for input  files -> Cs2TiI6i
- root for output files -> Cs2TiI6o

-instrng: 93 lines of input have been read from file Cs2TiI6.in


 Please give name of formatted atomic psp file (and finish with a newline character)
 For atom type 1, psp file is ../../../Psps_for_tests/ATOMICDATA_NC/Sn.psp8

 Please give name of formatted atomic psp file (and finish with a newline character)
 For atom type 2, psp file is ../../../Psps_for_tests/ATOMICDATA_NC/Se.psp8
  read the values zionpsp= 14.0 , pspcod=   8 , lmax=   2
  read the values zionpsp= 16.0 , pspcod=   8 , lmax=   2

 inpspheads: deduce mpsang = 3, n1xccc = 2501.

======================================================= 
 invars1m : enter jdtset= 1

 symlatt: the Bravais lattice is tP (primitive tetragonal)
  xred   is defined in input file
 ingeo: takes atomic coordinates from input array xred

--- !WARNING
src_file: m_ingeo.F90
src_line: 887
message: |
    The tolerance on symmetries =   1.000E-05 is bigger than 1.0e-8.
    In order to avoid spurious effects, the atomic coordinates have been
    symmetrized before storing them in the dataset internal variable.
    So, do not be surprised by the fact that your input variables (xcart, xred, ...)
    do not correspond to the ones echoed by ABINIT, the latter being used to do the calculations.
    In order to avoid this symmetrization (e.g. for specific debugging/development), decrease tolsym to 1.0e-8 or lower.
...


 symlatt: the Bravais lattice is tP (primitive tetragonal)

 symlatt: the Bravais lattice is tP (primitive tetragonal)
 symspgr: spgroup= 129  P4/n m m   (=D4h^7)
 symspgr: optical characteristics = uniaxial
 Optical axis (in reduced coordinates, real space ) :   0   0   1

======================================================= 
 invars1m : enter jdtset= 2

 symlatt: the Bravais lattice is tP (primitive tetragonal)
  xred   is defined in input file
 ingeo: takes atomic coordinates from input array xred

--- !WARNING
src_file: m_ingeo.F90
src_line: 887
message: |
    The tolerance on symmetries =   1.000E-05 is bigger than 1.0e-8.
    In order to avoid spurious effects, the atomic coordinates have been
    symmetrized before storing them in the dataset internal variable.
    So, do not be surprised by the fact that your input variables (xcart, xred, ...)
    do not correspond to the ones echoed by ABINIT, the latter being used to do the calculations.
    In order to avoid this symmetrization (e.g. for specific debugging/development), decrease tolsym to 1.0e-8 or lower.
...


 symlatt: the Bravais lattice is tP (primitive tetragonal)

 symlatt: the Bravais lattice is tP (primitive tetragonal)
 symspgr: spgroup= 129  P4/n m m   (=D4h^7)
 symspgr: optical characteristics = uniaxial
 Optical axis (in reduced coordinates, real space ) :   0   0   1

======================================================= 
 invars1m : enter jdtset= 3

 symlatt: the Bravais lattice is tP (primitive tetragonal)
  xred   is defined in input file
 ingeo: takes atomic coordinates from input array xred

--- !WARNING
src_file: m_ingeo.F90
src_line: 887
message: |
    The tolerance on symmetries =   1.000E-05 is bigger than 1.0e-8.
    In order to avoid spurious effects, the atomic coordinates have been
    symmetrized before storing them in the dataset internal variable.
    So, do not be surprised by the fact that your input variables (xcart, xred, ...)
    do not correspond to the ones echoed by ABINIT, the latter being used to do the calculations.
    In order to avoid this symmetrization (e.g. for specific debugging/development), decrease tolsym to 1.0e-8 or lower.
...


 symlatt: the Bravais lattice is tP (primitive tetragonal)

 symlatt: the Bravais lattice is tP (primitive tetragonal)
 symspgr: spgroup= 129  P4/n m m   (=D4h^7)
 symspgr: optical characteristics = uniaxial
 Optical axis (in reduced coordinates, real space ) :   0   0   1

======================================================= 
 invars1m : enter jdtset= 4

 symlatt: the Bravais lattice is tP (primitive tetragonal)
  xred   is defined in input file
 ingeo: takes atomic coordinates from input array xred

--- !WARNING
src_file: m_ingeo.F90
src_line: 887
message: |
    The tolerance on symmetries =   1.000E-05 is bigger than 1.0e-8.
    In order to avoid spurious effects, the atomic coordinates have been
    symmetrized before storing them in the dataset internal variable.
    So, do not be surprised by the fact that your input variables (xcart, xred, ...)
    do not correspond to the ones echoed by ABINIT, the latter being used to do the calculations.
    In order to avoid this symmetrization (e.g. for specific debugging/development), decrease tolsym to 1.0e-8 or lower.
...


 symlatt: the Bravais lattice is tP (primitive tetragonal)

 symlatt: the Bravais lattice is tP (primitive tetragonal)
 symspgr: spgroup= 129  P4/n m m   (=D4h^7)
 symspgr: optical characteristics = uniaxial
 Optical axis (in reduced coordinates, real space ) :   0   0   1

======================================================= 
 invars1m : enter jdtset= 5

 symlatt: the Bravais lattice is tP (primitive tetragonal)
  xred   is defined in input file
 ingeo: takes atomic coordinates from input array xred

--- !WARNING
src_file: m_ingeo.F90
src_line: 887
message: |
    The tolerance on symmetries =   1.000E-05 is bigger than 1.0e-8.
    In order to avoid spurious effects, the atomic coordinates have been
    symmetrized before storing them in the dataset internal variable.
    So, do not be surprised by the fact that your input variables (xcart, xred, ...)
    do not correspond to the ones echoed by ABINIT, the latter being used to do the calculations.
    In order to avoid this symmetrization (e.g. for specific debugging/development), decrease tolsym to 1.0e-8 or lower.
...


 symlatt: the Bravais lattice is tP (primitive tetragonal)

 symlatt: the Bravais lattice is tP (primitive tetragonal)
 symspgr: spgroup= 129  P4/n m m   (=D4h^7)
 symspgr: optical characteristics = uniaxial
 Optical axis (in reduced coordinates, real space ) :   0   0   1

======================================================= 
 invars1m : enter jdtset= 6

 symlatt: the Bravais lattice is tP (primitive tetragonal)
  xred   is defined in input file
 ingeo: takes atomic coordinates from input array xred

--- !WARNING
src_file: m_ingeo.F90
src_line: 887
message: |
    The tolerance on symmetries =   1.000E-05 is bigger than 1.0e-8.
    In order to avoid spurious effects, the atomic coordinates have been
    symmetrized before storing them in the dataset internal variable.
    So, do not be surprised by the fact that your input variables (xcart, xred, ...)
    do not correspond to the ones echoed by ABINIT, the latter being used to do the calculations.
    In order to avoid this symmetrization (e.g. for specific debugging/development), decrease tolsym to 1.0e-8 or lower.
...


 symlatt: the Bravais lattice is tP (primitive tetragonal)

 symlatt: the Bravais lattice is tP (primitive tetragonal)
 symspgr: spgroup= 129  P4/n m m   (=D4h^7)
 symspgr: optical characteristics = uniaxial
 Optical axis (in reduced coordinates, real space ) :   0   0   1

--- !WARNING
src_file: m_mpinfo.F90
src_line: 2281
message: |
    nkpt*nsppol (10) is not a multiple of nproc_kpt (6)
    The k-point parallelisation is inefficient. (Ignore this warning if this is not a GS run)
...

 For input ecut=  2.250000E+01 best grid ngfft=      36      36     192
       max ecut=  2.417113E+01

 ==== FFT mesh ====
  FFT mesh divisions ........................    36   36  192
  Augmented FFT divisions ...................    37   37  192
  FFT algorithm .............................   112
  FFT cache size ............................    16
 getmpw: optimal value of mpw= 13362

--- !WARNING
src_file: m_mpinfo.F90
src_line: 2281
message: |
    nkpt*nsppol (10) is not a multiple of nproc_kpt (6)
    The k-point parallelisation is inefficient. (Ignore this warning if this is not a GS run)
...

 For input ecut=  2.250000E+01 best grid ngfft=      36      36     192
       max ecut=  2.417113E+01

 ==== FFT mesh ====
  FFT mesh divisions ........................    36   36  192
  Augmented FFT divisions ...................    37   37  192
  FFT algorithm .............................   112
  FFT cache size ............................    16
 getmpw: optimal value of mpw= 13362

--- !WARNING
src_file: m_mpinfo.F90
src_line: 2281
message: |
    nkpt*nsppol (32) is not a multiple of nproc_kpt (6)
    The k-point parallelisation is inefficient. (Ignore this warning if this is not a GS run)
...

 For input ecut=  2.250000E+01 best grid ngfft=      36      36     192
       max ecut=  2.417113E+01

 ==== FFT mesh ====
  FFT mesh divisions ........................    36   36  192
  Augmented FFT divisions ...................    37   37  192
  FFT algorithm .............................   112
  FFT cache size ............................    16
 getmpw: optimal value of mpw= 13362
 For input ecut=  2.250000E+01 best grid ngfft=      36      36     192
       max ecut=  2.417113E+01

 ==== FFT mesh ====
  FFT mesh divisions ........................    36   36  192
  Augmented FFT divisions ...................    37   37  192
  FFT algorithm .............................   112
  FFT cache size ............................    16
 getmpw: optimal value of mpw= 13362
 getmpw: optimal value of mpw= 13362
 For input ecut=  2.250000E+01 best grid ngfft=      36      36     192
       max ecut=  2.417113E+01

 ==== FFT mesh ====
  FFT mesh divisions ........................    36   36  192
  Augmented FFT divisions ...................    37   37  192
  FFT algorithm .............................   112
  FFT cache size ............................    16
 getmpw: optimal value of mpw= 13362
 getmpw: optimal value of mpw= 13362
 For input ecut=  2.250000E+01 best grid ngfft=      36      36     192
       max ecut=  2.417113E+01

 ==== FFT mesh ====
  FFT mesh divisions ........................    36   36  192
  Augmented FFT divisions ...................    37   37  192
  FFT algorithm .............................   112
  FFT cache size ............................    16
 getmpw: optimal value of mpw= 13362
 getmpw: optimal value of mpw= 13362

 DATASET    1 : space group P4/n m m (#129); Bravais tP (primitive tetrag.)

 getdim_nloc : deduce lmnmax  =  18, lnmax  =   6,
                      lmnmaxso=  18, lnmaxso=   6.
memory: analysis of memory needs
================================================================================
 Values of the parameters that define the memory need for DATASET  1.
     intxc =       0    ionmov =       0      iscf =       7    lmnmax =       6
     lnmax =       6     mgfft =     192  mpssoang =       3    mqgrid =    9263
     natom =      12  nloc_mem =       1    nspden =       1   nspinor =       1
    nsppol =       1      nsym =      16    n1xccc =    2501    ntypat =       2
    occopt =       1   xclevel =       2
-    mband =          92        mffmem =           1         mkmem =           2
       mpw =       13362          nfft =      248832          nkpt =          10
================================================================================
P This job should need less than                     120.650 Mbytes of memory.
  Rough estimation (10% accuracy) of disk space for files :
_ WF disk file :    187.579 Mbytes ; DEN or POT disk file :      1.900 Mbytes.
================================================================================

 Biggest array : cg(disk), with     37.5174 MBytes.
 memana : allocated an array of     37.517 Mbytes, for testing purposes.
 memana: allocated     120.650Mbytes, for testing purposes. 
 The job will continue.

 DATASET    2 : space group P4/n m m (#129); Bravais tP (primitive tetrag.)

 getdim_nloc : deduce lmnmax  =  18, lnmax  =   6,
                      lmnmaxso=  18, lnmaxso=   6.
memory: analysis of memory needs
================================================================================
 Values of the parameters that define the memory need for DATASET  2.
     intxc =       0    ionmov =       0      iscf =      -2    lmnmax =       6
     lnmax =       6     mgfft =     192  mpssoang =       3    mqgrid =    9263
     natom =      12  nloc_mem =       1    nspden =       1   nspinor =       1
    nsppol =       1      nsym =      16    n1xccc =    2501    ntypat =       2
    occopt =       1   xclevel =       2
-    mband =         200        mffmem =           1         mkmem =           2
       mpw =       13362          nfft =      248832          nkpt =          10
================================================================================
P This job should need less than                     132.441 Mbytes of memory.
  Rough estimation (10% accuracy) of disk space for files :
_ WF disk file :    407.778 Mbytes ; DEN or POT disk file :      1.900 Mbytes.
================================================================================

 Biggest array : cg(disk), with     81.5572 MBytes.
 memana : allocated an array of     81.557 Mbytes, for testing purposes.
 memana: allocated     132.441Mbytes, for testing purposes. 
 The job will continue.

 DATASET    3 : space group P4/n m m (#129); Bravais tP (primitive tetrag.)

 getdim_nloc : deduce lmnmax  =  18, lnmax  =   6,
                      lmnmaxso=  18, lnmaxso=   6.
memory: analysis of memory needs
================================================================================
 Values of the parameters that define the memory need for DATASET  3.
     intxc =       0    ionmov =       0      iscf =      -2    lmnmax =       6
     lnmax =       6     mgfft =     192  mpssoang =       3    mqgrid =    9263
     natom =      12  nloc_mem =       1    nspden =       1   nspinor =       1
    nsppol =       1      nsym =      16    n1xccc =    2501    ntypat =       2
    occopt =       1   xclevel =       2
-    mband =         200        mffmem =           1         mkmem =           6
       mpw =       13362          nfft =      248832          nkpt =          32
================================================================================
P This job should need less than                     296.264 Mbytes of memory.
  Rough estimation (10% accuracy) of disk space for files :
_ WF disk file :   1304.885 Mbytes ; DEN or POT disk file :      1.900 Mbytes.
================================================================================

 Biggest array : cg(disk), with    244.6675 MBytes.
 memana : allocated an array of    244.668 Mbytes, for testing purposes.
 memana: allocated     296.264Mbytes, for testing purposes. 
 The job will continue.

 DATASET    4 : space group P4/n m m (#129); Bravais tP (primitive tetrag.)

 getdim_nloc : deduce lmnmax  =  18, lnmax  =   6,
                      lmnmaxso=  18, lnmaxso=   6.
 memorf : analysis of memory needs
================================================================================
 Values of the parameters that define the memory need for DATASET  4 (RF).
     intxc =       0      iscf =      -3    lmnmax =       6     lnmax =       6
     mgfft =     192  mpssoang =       3    mqgrid =    9263     natom =      12
  nloc_mem =       1    nspden =       1   nspinor =       1    nsppol =       1
      nsym =      16    n1xccc =    2501    ntypat =       2    occopt =       1
   xclevel =       2
-    mband =         200        mffmem =           1         mkmem =           6
-   mkqmem =           6        mk1mem =           6           mpw =       13362
      nfft =      248832          nkpt =          32
================================================================================
P This job should need less than                     816.280 Mbytes of memory.
  Rough estimation (10% accuracy) of disk space for files :
_ WF disk file :   1304.885 Mbytes ; DEN or POT disk file :      1.900 Mbytes.
================================================================================

 Biggest array : cg(disk), with    244.6675 MBytes.
 memana : allocated an array of    244.668 Mbytes, for testing purposes.
 memana: allocated     816.280Mbytes, for testing purposes. 
 The job will continue.

 DATASET    5 : space group P4/n m m (#129); Bravais tP (primitive tetrag.)

 getdim_nloc : deduce lmnmax  =  18, lnmax  =   6,
                      lmnmaxso=  18, lnmaxso=   6.
 memorf : analysis of memory needs
================================================================================
 Values of the parameters that define the memory need for DATASET  5 (RF).
     intxc =       0      iscf =      -3    lmnmax =       6     lnmax =       6
     mgfft =     192  mpssoang =       3    mqgrid =    9263     natom =      12
  nloc_mem =       1    nspden =       1   nspinor =       1    nsppol =       1
      nsym =      16    n1xccc =    2501    ntypat =       2    occopt =       1
   xclevel =       2
-    mband =         200        mffmem =           1         mkmem =           6
-   mkqmem =           6        mk1mem =           6           mpw =       13362
      nfft =      248832          nkpt =          32
================================================================================
P This job should need less than                     816.280 Mbytes of memory.
  Rough estimation (10% accuracy) of disk space for files :
_ WF disk file :   1304.885 Mbytes ; DEN or POT disk file :      1.900 Mbytes.
================================================================================

 Biggest array : cg(disk), with    244.6675 MBytes.
 memana : allocated an array of    244.668 Mbytes, for testing purposes.
 memana: allocated     816.280Mbytes, for testing purposes. 
 The job will continue.

 DATASET    6 : space group P4/n m m (#129); Bravais tP (primitive tetrag.)

 getdim_nloc : deduce lmnmax  =  18, lnmax  =   6,
                      lmnmaxso=  18, lnmaxso=   6.
 memorf : analysis of memory needs
================================================================================
 Values of the parameters that define the memory need for DATASET  6 (RF).
     intxc =       0      iscf =      -3    lmnmax =       6     lnmax =       6
     mgfft =     192  mpssoang =       3    mqgrid =    9263     natom =      12
  nloc_mem =       1    nspden =       1   nspinor =       1    nsppol =       1
      nsym =      16    n1xccc =    2501    ntypat =       2    occopt =       1
   xclevel =       2
-    mband =         200        mffmem =           1         mkmem =           6
-   mkqmem =           6        mk1mem =           6           mpw =       13362
      nfft =      248832          nkpt =          32
================================================================================
P This job should need less than                     816.280 Mbytes of memory.
  Rough estimation (10% accuracy) of disk space for files :
_ WF disk file :   1304.885 Mbytes ; DEN or POT disk file :      1.900 Mbytes.
================================================================================

 Biggest array : cg(disk), with    244.6675 MBytes.
 memana : allocated an array of    244.668 Mbytes, for testing purposes.
 memana: allocated     816.280Mbytes, for testing purposes. 
 The job will continue.
--------------------------------------------------------------------------------
------------- Echo of variables that govern the present computation ------------
--------------------------------------------------------------------------------
-
- outvars: echo of selected default values                                      
-   iomode0 =  0 , fftalg0 =112 , wfoptalg0 =  0
-
- outvars: echo of global parameters not present in the input file              
-  max_nthreads =    0
-
 -outvars: echo values of preprocessed input variables --------
 
 These variables are accessible in NetCDF format (Cs2TiI6o_OUT.nc)

            acell      7.7624316804E+00  7.7624316804E+00  7.7624316804E+00 Bohr
              amu      1.18710000E+02  7.89600000E+01
           diemac      1.20000000E+01
             ecut      2.25000000E+01 Hartree
-          fftalg         112
           getden1          0
           getden2          1
           getden3          1
           getden4          0
           getden5          0
           getden6          0
           getwfk1          0
           getwfk2          1
           getwfk3          2
           getwfk4          3
           getwfk5          3
           getwfk6          3
             iscf1          7
             iscf2         -2
             iscf3         -2
             iscf4         -3
             iscf5         -3
             iscf6         -3
              ixc          11
           jdtset        1    2    3    4    5    6
              kpt1     6.25000000E-02  6.25000000E-02  5.00000000E-01
                       1.87500000E-01  6.25000000E-02  5.00000000E-01
                       3.12500000E-01  6.25000000E-02  5.00000000E-01
                       4.37500000E-01  6.25000000E-02  5.00000000E-01
                       1.87500000E-01  1.87500000E-01  5.00000000E-01
                       3.12500000E-01  1.87500000E-01  5.00000000E-01
                       4.37500000E-01  1.87500000E-01  5.00000000E-01
                       3.12500000E-01  3.12500000E-01  5.00000000E-01
                       4.37500000E-01  3.12500000E-01  5.00000000E-01
                       4.37500000E-01  4.37500000E-01  5.00000000E-01
              kpt2     6.25000000E-02  6.25000000E-02  5.00000000E-01
                       1.87500000E-01  6.25000000E-02  5.00000000E-01
                       3.12500000E-01  6.25000000E-02  5.00000000E-01
                       4.37500000E-01  6.25000000E-02  5.00000000E-01
                       1.87500000E-01  1.87500000E-01  5.00000000E-01
                       3.12500000E-01  1.87500000E-01  5.00000000E-01
                       4.37500000E-01  1.87500000E-01  5.00000000E-01
                       3.12500000E-01  3.12500000E-01  5.00000000E-01
                       4.37500000E-01  3.12500000E-01  5.00000000E-01
                       4.37500000E-01  4.37500000E-01  5.00000000E-01
              kpt3     6.25000000E-02  6.25000000E-02  5.00000000E-01
                       1.87500000E-01  6.25000000E-02  5.00000000E-01
                       3.12500000E-01  6.25000000E-02  5.00000000E-01
                       4.37500000E-01  6.25000000E-02  5.00000000E-01
                      -4.37500000E-01  6.25000000E-02  5.00000000E-01
                      -3.12500000E-01  6.25000000E-02  5.00000000E-01
                      -1.87500000E-01  6.25000000E-02  5.00000000E-01
                      -6.25000000E-02  6.25000000E-02  5.00000000E-01
                       6.25000000E-02  1.87500000E-01  5.00000000E-01
                       1.87500000E-01  1.87500000E-01  5.00000000E-01
                       3.12500000E-01  1.87500000E-01  5.00000000E-01
                       4.37500000E-01  1.87500000E-01  5.00000000E-01
                      -4.37500000E-01  1.87500000E-01  5.00000000E-01
                      -3.12500000E-01  1.87500000E-01  5.00000000E-01
                      -1.87500000E-01  1.87500000E-01  5.00000000E-01
                      -6.25000000E-02  1.87500000E-01  5.00000000E-01
                       6.25000000E-02  3.12500000E-01  5.00000000E-01
                       1.87500000E-01  3.12500000E-01  5.00000000E-01
                       3.12500000E-01  3.12500000E-01  5.00000000E-01
                       4.37500000E-01  3.12500000E-01  5.00000000E-01
                      -4.37500000E-01  3.12500000E-01  5.00000000E-01
                      -3.12500000E-01  3.12500000E-01  5.00000000E-01
                      -1.87500000E-01  3.12500000E-01  5.00000000E-01
                      -6.25000000E-02  3.12500000E-01  5.00000000E-01
                       6.25000000E-02  4.37500000E-01  5.00000000E-01
                       1.87500000E-01  4.37500000E-01  5.00000000E-01
                       3.12500000E-01  4.37500000E-01  5.00000000E-01
                       4.37500000E-01  4.37500000E-01  5.00000000E-01
                      -4.37500000E-01  4.37500000E-01  5.00000000E-01
                      -3.12500000E-01  4.37500000E-01  5.00000000E-01
                      -1.87500000E-01  4.37500000E-01  5.00000000E-01
                      -6.25000000E-02  4.37500000E-01  5.00000000E-01
              kpt4     6.25000000E-02  6.25000000E-02  5.00000000E-01
                       1.87500000E-01  6.25000000E-02  5.00000000E-01
                       3.12500000E-01  6.25000000E-02  5.00000000E-01
                       4.37500000E-01  6.25000000E-02  5.00000000E-01
                      -4.37500000E-01  6.25000000E-02  5.00000000E-01
                      -3.12500000E-01  6.25000000E-02  5.00000000E-01
                      -1.87500000E-01  6.25000000E-02  5.00000000E-01
                      -6.25000000E-02  6.25000000E-02  5.00000000E-01
                       6.25000000E-02  1.87500000E-01  5.00000000E-01
                       1.87500000E-01  1.87500000E-01  5.00000000E-01
                       3.12500000E-01  1.87500000E-01  5.00000000E-01
                       4.37500000E-01  1.87500000E-01  5.00000000E-01
                      -4.37500000E-01  1.87500000E-01  5.00000000E-01
                      -3.12500000E-01  1.87500000E-01  5.00000000E-01
                      -1.87500000E-01  1.87500000E-01  5.00000000E-01
                      -6.25000000E-02  1.87500000E-01  5.00000000E-01
                       6.25000000E-02  3.12500000E-01  5.00000000E-01
                       1.87500000E-01  3.12500000E-01  5.00000000E-01
                       3.12500000E-01  3.12500000E-01  5.00000000E-01
                       4.37500000E-01  3.12500000E-01  5.00000000E-01
                      -4.37500000E-01  3.12500000E-01  5.00000000E-01
                      -3.12500000E-01  3.12500000E-01  5.00000000E-01
                      -1.87500000E-01  3.12500000E-01  5.00000000E-01
                      -6.25000000E-02  3.12500000E-01  5.00000000E-01
                       6.25000000E-02  4.37500000E-01  5.00000000E-01
                       1.87500000E-01  4.37500000E-01  5.00000000E-01
                       3.12500000E-01  4.37500000E-01  5.00000000E-01
                       4.37500000E-01  4.37500000E-01  5.00000000E-01
                      -4.37500000E-01  4.37500000E-01  5.00000000E-01
                      -3.12500000E-01  4.37500000E-01  5.00000000E-01
                      -1.87500000E-01  4.37500000E-01  5.00000000E-01
                      -6.25000000E-02  4.37500000E-01  5.00000000E-01
              kpt5     6.25000000E-02  6.25000000E-02  5.00000000E-01
                       1.87500000E-01  6.25000000E-02  5.00000000E-01
                       3.12500000E-01  6.25000000E-02  5.00000000E-01
                       4.37500000E-01  6.25000000E-02  5.00000000E-01
                      -4.37500000E-01  6.25000000E-02  5.00000000E-01
                      -3.12500000E-01  6.25000000E-02  5.00000000E-01
                      -1.87500000E-01  6.25000000E-02  5.00000000E-01
                      -6.25000000E-02  6.25000000E-02  5.00000000E-01
                       6.25000000E-02  1.87500000E-01  5.00000000E-01
                       1.87500000E-01  1.87500000E-01  5.00000000E-01
                       3.12500000E-01  1.87500000E-01  5.00000000E-01
                       4.37500000E-01  1.87500000E-01  5.00000000E-01
                      -4.37500000E-01  1.87500000E-01  5.00000000E-01
                      -3.12500000E-01  1.87500000E-01  5.00000000E-01
                      -1.87500000E-01  1.87500000E-01  5.00000000E-01
                      -6.25000000E-02  1.87500000E-01  5.00000000E-01
                       6.25000000E-02  3.12500000E-01  5.00000000E-01
                       1.87500000E-01  3.12500000E-01  5.00000000E-01
                       3.12500000E-01  3.12500000E-01  5.00000000E-01
                       4.37500000E-01  3.12500000E-01  5.00000000E-01
                      -4.37500000E-01  3.12500000E-01  5.00000000E-01
                      -3.12500000E-01  3.12500000E-01  5.00000000E-01
                      -1.87500000E-01  3.12500000E-01  5.00000000E-01
                      -6.25000000E-02  3.12500000E-01  5.00000000E-01
                       6.25000000E-02  4.37500000E-01  5.00000000E-01
                       1.87500000E-01  4.37500000E-01  5.00000000E-01
                       3.12500000E-01  4.37500000E-01  5.00000000E-01
                       4.37500000E-01  4.37500000E-01  5.00000000E-01
                      -4.37500000E-01  4.37500000E-01  5.00000000E-01
                      -3.12500000E-01  4.37500000E-01  5.00000000E-01
                      -1.87500000E-01  4.37500000E-01  5.00000000E-01
                      -6.25000000E-02  4.37500000E-01  5.00000000E-01
              kpt6     6.25000000E-02  6.25000000E-02  5.00000000E-01
                       1.87500000E-01  6.25000000E-02  5.00000000E-01
                       3.12500000E-01  6.25000000E-02  5.00000000E-01
                       4.37500000E-01  6.25000000E-02  5.00000000E-01
                      -4.37500000E-01  6.25000000E-02  5.00000000E-01
                      -3.12500000E-01  6.25000000E-02  5.00000000E-01
                      -1.87500000E-01  6.25000000E-02  5.00000000E-01
                      -6.25000000E-02  6.25000000E-02  5.00000000E-01
                       6.25000000E-02  1.87500000E-01  5.00000000E-01
                       1.87500000E-01  1.87500000E-01  5.00000000E-01
                       3.12500000E-01  1.87500000E-01  5.00000000E-01
                       4.37500000E-01  1.87500000E-01  5.00000000E-01
                      -4.37500000E-01  1.87500000E-01  5.00000000E-01
                      -3.12500000E-01  1.87500000E-01  5.00000000E-01
                      -1.87500000E-01  1.87500000E-01  5.00000000E-01
                      -6.25000000E-02  1.87500000E-01  5.00000000E-01
                       6.25000000E-02  3.12500000E-01  5.00000000E-01
                       1.87500000E-01  3.12500000E-01  5.00000000E-01
                       3.12500000E-01  3.12500000E-01  5.00000000E-01
                       4.37500000E-01  3.12500000E-01  5.00000000E-01
                      -4.37500000E-01  3.12500000E-01  5.00000000E-01
                      -3.12500000E-01  3.12500000E-01  5.00000000E-01
                      -1.87500000E-01  3.12500000E-01  5.00000000E-01
                      -6.25000000E-02  3.12500000E-01  5.00000000E-01
                       6.25000000E-02  4.37500000E-01  5.00000000E-01
                       1.87500000E-01  4.37500000E-01  5.00000000E-01
                       3.12500000E-01  4.37500000E-01  5.00000000E-01
                       4.37500000E-01  4.37500000E-01  5.00000000E-01
                      -4.37500000E-01  4.37500000E-01  5.00000000E-01
                      -3.12500000E-01  4.37500000E-01  5.00000000E-01
                      -1.87500000E-01  4.37500000E-01  5.00000000E-01
                      -6.25000000E-02  4.37500000E-01  5.00000000E-01
           kptopt1          1
           kptopt2          1
           kptopt3          2
           kptopt4          2
           kptopt5          2
           kptopt6          2
         kptrlatt        8    0    0      0    8    0      0    0    1
          kptrlen      6.20994534E+01
P           mkmem1          2
P           mkmem2          2
P           mkmem3          6
P           mkmem4          6
P           mkmem5          6
P           mkmem6          6
P          mkqmem1          2
P          mkqmem2          2
P          mkqmem3          6
P          mkqmem4          6
P          mkqmem5          6
P          mkqmem6          6
P          mk1mem1          2
P          mk1mem2          2
P          mk1mem3          6
P          mk1mem4          6
P          mk1mem5          6
P          mk1mem6          6
            natom          12
            nband1         92
            nband2        200
            nband3        200
            nband4        200
            nband5        200
            nband6        200
           nbdbuf1          0
           nbdbuf2          2
           nbdbuf3          2
           nbdbuf4          2
           nbdbuf5          2
           nbdbuf6          2
           ndtset           6
            ngfft          36      36     192
             nkpt1         10
             nkpt2         10
             nkpt3         32
             nkpt4         32
             nkpt5         32
             nkpt6         32
            nline1          4
            nline2          4
            nline3          4
            nline4          0
            nline5          0
            nline6          0
             nqpt1          0
             nqpt2          0
             nqpt3          0
             nqpt4          1
             nqpt5          1
             nqpt6          1
            nstep1        400
            nstep2        200
            nstep3        200
            nstep4          1
            nstep5          1
            nstep6          1
             nsym          16
           ntypat           2
              occ1     2.000000  2.000000  2.000000  2.000000  2.000000  2.000000
                       2.000000  2.000000  2.000000  2.000000  2.000000  2.000000
                       2.000000  2.000000  2.000000  2.000000  2.000000  2.000000
                       2.000000  2.000000  2.000000  2.000000  2.000000  2.000000
                       2.000000  2.000000  2.000000  2.000000  2.000000  2.000000
                       2.000000  2.000000  2.000000  2.000000  2.000000  2.000000
                       2.000000  2.000000  2.000000  2.000000  2.000000  2.000000
                       2.000000  2.000000  2.000000  2.000000  2.000000  2.000000
                       2.000000  2.000000  2.000000  2.000000  2.000000  2.000000
                       2.000000  2.000000  2.000000  2.000000  2.000000  2.000000
                       2.000000  2.000000  2.000000  2.000000  2.000000  2.000000
                       2.000000  2.000000  2.000000  2.000000  2.000000  2.000000
                       2.000000  2.000000  2.000000  2.000000  2.000000  2.000000
                       2.000000  2.000000  2.000000  2.000000  2.000000  2.000000
                       2.000000  2.000000  2.000000  2.000000  2.000000  2.000000
                       0.000000  0.000000
              occ4     2.000000  2.000000  2.000000  2.000000  2.000000  2.000000
                       2.000000  2.000000  2.000000  2.000000  2.000000  2.000000
                       2.000000  2.000000  2.000000  2.000000  2.000000  2.000000
                       2.000000  2.000000  2.000000  2.000000  2.000000  2.000000
                       2.000000  2.000000  2.000000  2.000000  2.000000  2.000000
                       2.000000  2.000000  2.000000  2.000000  2.000000  2.000000
                       2.000000  2.000000  2.000000  2.000000  2.000000  2.000000
                       2.000000  2.000000  2.000000  2.000000  2.000000  2.000000
                       2.000000  2.000000  2.000000  2.000000  2.000000  2.000000
                       2.000000  2.000000  2.000000  2.000000  2.000000  2.000000
                       2.000000  2.000000  2.000000  2.000000  2.000000  2.000000
                       2.000000  2.000000  2.000000  2.000000  2.000000  2.000000
                       2.000000  2.000000  2.000000  2.000000  2.000000  2.000000
                       2.000000  2.000000  2.000000  2.000000  2.000000  2.000000
                       2.000000  2.000000  2.000000  2.000000  2.000000  2.000000
                       0.000000  0.000000  0.000000  0.000000  0.000000  0.000000
                       0.000000  0.000000  0.000000  0.000000  0.000000  0.000000
                       0.000000  0.000000  0.000000  0.000000  0.000000  0.000000
                       0.000000  0.000000  0.000000  0.000000  0.000000  0.000000
                       0.000000  0.000000  0.000000  0.000000  0.000000  0.000000
                       0.000000  0.000000  0.000000  0.000000  0.000000  0.000000
                       0.000000  0.000000  0.000000  0.000000  0.000000  0.000000
                       0.000000  0.000000  0.000000  0.000000  0.000000  0.000000
                       0.000000  0.000000  0.000000  0.000000  0.000000  0.000000
                       0.000000  0.000000  0.000000  0.000000  0.000000  0.000000
                       0.000000  0.000000  0.000000  0.000000  0.000000  0.000000
                       0.000000  0.000000  0.000000  0.000000  0.000000  0.000000
                       0.000000  0.000000  0.000000  0.000000  0.000000  0.000000
                       0.000000  0.000000  0.000000  0.000000  0.000000  0.000000
                       0.000000  0.000000  0.000000  0.000000  0.000000  0.000000
                       0.000000  0.000000  0.000000  0.000000  0.000000  0.000000
                       0.000000  0.000000  0.000000  0.000000  0.000000  0.000000
                       0.000000  0.000000  0.000000  0.000000  0.000000  0.000000
                       0.000000  0.000000
              occ5     2.000000  2.000000  2.000000  2.000000  2.000000  2.000000
                       2.000000  2.000000  2.000000  2.000000  2.000000  2.000000
                       2.000000  2.000000  2.000000  2.000000  2.000000  2.000000
                       2.000000  2.000000  2.000000  2.000000  2.000000  2.000000
                       2.000000  2.000000  2.000000  2.000000  2.000000  2.000000
                       2.000000  2.000000  2.000000  2.000000  2.000000  2.000000
                       2.000000  2.000000  2.000000  2.000000  2.000000  2.000000
                       2.000000  2.000000  2.000000  2.000000  2.000000  2.000000
                       2.000000  2.000000  2.000000  2.000000  2.000000  2.000000
                       2.000000  2.000000  2.000000  2.000000  2.000000  2.000000
                       2.000000  2.000000  2.000000  2.000000  2.000000  2.000000
                       2.000000  2.000000  2.000000  2.000000  2.000000  2.000000
                       2.000000  2.000000  2.000000  2.000000  2.000000  2.000000
                       2.000000  2.000000  2.000000  2.000000  2.000000  2.000000
                       2.000000  2.000000  2.000000  2.000000  2.000000  2.000000
                       0.000000  0.000000  0.000000  0.000000  0.000000  0.000000
                       0.000000  0.000000  0.000000  0.000000  0.000000  0.000000
                       0.000000  0.000000  0.000000  0.000000  0.000000  0.000000
                       0.000000  0.000000  0.000000  0.000000  0.000000  0.000000
                       0.000000  0.000000  0.000000  0.000000  0.000000  0.000000
                       0.000000  0.000000  0.000000  0.000000  0.000000  0.000000
                       0.000000  0.000000  0.000000  0.000000  0.000000  0.000000
                       0.000000  0.000000  0.000000  0.000000  0.000000  0.000000
                       0.000000  0.000000  0.000000  0.000000  0.000000  0.000000
                       0.000000  0.000000  0.000000  0.000000  0.000000  0.000000
                       0.000000  0.000000  0.000000  0.000000  0.000000  0.000000
                       0.000000  0.000000  0.000000  0.000000  0.000000  0.000000
                       0.000000  0.000000  0.000000  0.000000  0.000000  0.000000
                       0.000000  0.000000  0.000000  0.000000  0.000000  0.000000
                       0.000000  0.000000  0.000000  0.000000  0.000000  0.000000
                       0.000000  0.000000  0.000000  0.000000  0.000000  0.000000
                       0.000000  0.000000  0.000000  0.000000  0.000000  0.000000
                       0.000000  0.000000  0.000000  0.000000  0.000000  0.000000
                       0.000000  0.000000
              occ6     2.000000  2.000000  2.000000  2.000000  2.000000  2.000000
                       2.000000  2.000000  2.000000  2.000000  2.000000  2.000000
                       2.000000  2.000000  2.000000  2.000000  2.000000  2.000000
                       2.000000  2.000000  2.000000  2.000000  2.000000  2.000000
                       2.000000  2.000000  2.000000  2.000000  2.000000  2.000000
                       2.000000  2.000000  2.000000  2.000000  2.000000  2.000000
                       2.000000  2.000000  2.000000  2.000000  2.000000  2.000000
                       2.000000  2.000000  2.000000  2.000000  2.000000  2.000000
                       2.000000  2.000000  2.000000  2.000000  2.000000  2.000000
                       2.000000  2.000000  2.000000  2.000000  2.000000  2.000000
                       2.000000  2.000000  2.000000  2.000000  2.000000  2.000000
                       2.000000  2.000000  2.000000  2.000000  2.000000  2.000000
                       2.000000  2.000000  2.000000  2.000000  2.000000  2.000000
                       2.000000  2.000000  2.000000  2.000000  2.000000  2.000000
                       2.000000  2.000000  2.000000  2.000000  2.000000  2.000000
                       0.000000  0.000000  0.000000  0.000000  0.000000  0.000000
                       0.000000  0.000000  0.000000  0.000000  0.000000  0.000000
                       0.000000  0.000000  0.000000  0.000000  0.000000  0.000000
                       0.000000  0.000000  0.000000  0.000000  0.000000  0.000000
                       0.000000  0.000000  0.000000  0.000000  0.000000  0.000000
                       0.000000  0.000000  0.000000  0.000000  0.000000  0.000000
                       0.000000  0.000000  0.000000  0.000000  0.000000  0.000000
                       0.000000  0.000000  0.000000  0.000000  0.000000  0.000000
                       0.000000  0.000000  0.000000  0.000000  0.000000  0.000000
                       0.000000  0.000000  0.000000  0.000000  0.000000  0.000000
                       0.000000  0.000000  0.000000  0.000000  0.000000  0.000000
                       0.000000  0.000000  0.000000  0.000000  0.000000  0.000000
                       0.000000  0.000000  0.000000  0.000000  0.000000  0.000000
                       0.000000  0.000000  0.000000  0.000000  0.000000  0.000000
                       0.000000  0.000000  0.000000  0.000000  0.000000  0.000000
                       0.000000  0.000000  0.000000  0.000000  0.000000  0.000000
                       0.000000  0.000000  0.000000  0.000000  0.000000  0.000000
                       0.000000  0.000000  0.000000  0.000000  0.000000  0.000000
                       0.000000  0.000000
        optdriver1          0
        optdriver2          0
        optdriver3          0
        optdriver4          1
        optdriver5          1
        optdriver6          1
            prtwf1          1
            prtwf2          1
            prtwf3          1
            prtwf4          3
            prtwf5          3
            prtwf6          3
            rfdir1          0       0       0
            rfdir2          0       0       0
            rfdir3          0       0       0
            rfdir4          1       0       0
            rfdir5          0       1       0
            rfdir6          0       0       1
           rfelfd1          0
           rfelfd2          0
           rfelfd3          0
           rfelfd4          2
           rfelfd5          2
           rfelfd6          2
            rprim      1.0000000000E+00  0.0000000000E+00  0.0000000000E+00
                       0.0000000000E+00  1.0000000000E+00  0.0000000000E+00
                       0.0000000000E+00  0.0000000000E+00  5.5880443615E+00
           shiftk      5.00000000E-01  5.00000000E-01  5.00000000E-01
          spgroup         129
           symrel      1  0  0   0  1  0   0  0  1      -1  0  0   0 -1  0   0  0 -1
                      -1  0  0   0  1  0   0  0 -1       1  0  0   0 -1  0   0  0  1
                      -1  0  0   0 -1  0   0  0  1       1  0  0   0  1  0   0  0 -1
                       1  0  0   0 -1  0   0  0 -1      -1  0  0   0  1  0   0  0  1
                       0  1  0   1  0  0   0  0  1       0 -1  0  -1  0  0   0  0 -1
                       0 -1  0   1  0  0   0  0 -1       0  1  0  -1  0  0   0  0  1
                       0 -1  0  -1  0  0   0  0  1       0  1  0   1  0  0   0  0 -1
                       0  1  0  -1  0  0   0  0 -1       0 -1  0   1  0  0   0  0  1
            tnons      0.0000000  0.0000000  0.0000000     0.5000000  0.5000000 -0.0000000
                       0.5000000  0.5000000 -0.0000000     0.0000000  0.0000000  0.0000000
                      -0.0000000  0.0000000  0.0000000     0.5000000  0.5000000 -0.0000000
                       0.5000000  0.5000000 -0.0000000    -0.0000000  0.0000000  0.0000000
                       0.5000000  0.5000000  0.0000000     0.0000000 -0.0000000 -0.0000000
                       0.0000000 -0.0000000 -0.0000000     0.5000000  0.5000000  0.0000000
                       0.5000000  0.5000000  0.0000000     0.0000000  0.0000000 -0.0000000
                       0.0000000  0.0000000 -0.0000000     0.5000000  0.5000000  0.0000000
           tolwfr      1.00000000E-20
            typat      1  1  1  1  1  1  2  2  2  2  2  2
           vdw_xc           5
              wtk1       0.06250    0.12500    0.12500    0.12500    0.06250    0.12500
                         0.12500    0.06250    0.12500    0.06250
              wtk2       0.06250    0.12500    0.12500    0.12500    0.06250    0.12500
                         0.12500    0.06250    0.12500    0.06250
              wtk3       0.03125    0.03125    0.03125    0.03125    0.03125    0.03125
                         0.03125    0.03125    0.03125    0.03125    0.03125    0.03125
                         0.03125    0.03125    0.03125    0.03125    0.03125    0.03125
                         0.03125    0.03125    0.03125    0.03125    0.03125    0.03125
                         0.03125    0.03125    0.03125    0.03125    0.03125    0.03125
                         0.03125    0.03125
              wtk4       0.03125    0.03125    0.03125    0.03125    0.03125    0.03125
                         0.03125    0.03125    0.03125    0.03125    0.03125    0.03125
                         0.03125    0.03125    0.03125    0.03125    0.03125    0.03125
                         0.03125    0.03125    0.03125    0.03125    0.03125    0.03125
                         0.03125    0.03125    0.03125    0.03125    0.03125    0.03125
                         0.03125    0.03125
              wtk5       0.03125    0.03125    0.03125    0.03125    0.03125    0.03125
                         0.03125    0.03125    0.03125    0.03125    0.03125    0.03125
                         0.03125    0.03125    0.03125    0.03125    0.03125    0.03125
                         0.03125    0.03125    0.03125    0.03125    0.03125    0.03125
                         0.03125    0.03125    0.03125    0.03125    0.03125    0.03125
                         0.03125    0.03125
              wtk6       0.03125    0.03125    0.03125    0.03125    0.03125    0.03125
                         0.03125    0.03125    0.03125    0.03125    0.03125    0.03125
                         0.03125    0.03125    0.03125    0.03125    0.03125    0.03125
                         0.03125    0.03125    0.03125    0.03125    0.03125    0.03125
                         0.03125    0.03125    0.03125    0.03125    0.03125    0.03125
                         0.03125    0.03125
           xangst      2.0538509643E+00  0.0000000000E+00  4.6664605720E+00
                       0.0000000000E+00  2.0538509643E+00  7.4160997457E+00
                       2.0538509643E+00  0.0000000000E+00  1.0102202190E+01
                       0.0000000000E+00  2.0538509643E+00  1.2851818410E+01
                       2.0538509643E+00  0.0000000000E+00  1.5537920855E+01
                       0.0000000000E+00  2.0538509643E+00  1.8287560029E+01
                       0.0000000000E+00  2.0538509643E+00  4.6982289365E+00
                       2.0538509643E+00  0.0000000000E+00  7.3843313812E+00
                       0.0000000000E+00  2.0538509643E+00  1.0133970555E+01
                       2.0538509643E+00  0.0000000000E+00  1.2820050046E+01
                       0.0000000000E+00  2.0538509643E+00  1.5569689219E+01
                       2.0538509643E+00  0.0000000000E+00  1.8255791664E+01
            xcart      3.8812158402E+00  0.0000000000E+00  8.8183324910E+00
                       0.0000000000E+00  3.8812158402E+00  1.4014397494E+01
                       3.8812158402E+00  0.0000000000E+00  1.9090395479E+01
                       0.0000000000E+00  3.8812158402E+00  2.4286417105E+01
                       3.8812158402E+00  0.0000000000E+00  2.9362415090E+01
                       0.0000000000E+00  3.8812158402E+00  3.4558480093E+01
                       0.0000000000E+00  3.8812158402E+00  8.8783659996E+00
                       3.8812158402E+00  0.0000000000E+00  1.3954363985E+01
                       0.0000000000E+00  3.8812158402E+00  1.9150428988E+01
                       3.8812158402E+00  0.0000000000E+00  2.4226383596E+01
                       0.0000000000E+00  3.8812158402E+00  2.9422448599E+01
                       3.8812158402E+00  0.0000000000E+00  3.4498446584E+01
             xred      5.0000000000E-01  0.0000000000E+00  2.0329600000E-01
                       0.0000000000E+00  5.0000000000E-01  3.2308500000E-01
                       5.0000000000E-01  0.0000000000E+00  4.4010600000E-01
                       0.0000000000E+00  5.0000000000E-01  5.5989400000E-01
                       5.0000000000E-01  0.0000000000E+00  6.7691500000E-01
                       0.0000000000E+00  5.0000000000E-01  7.9670400000E-01
                       0.0000000000E+00  5.0000000000E-01  2.0468000000E-01
                       5.0000000000E-01  0.0000000000E+00  3.2170100000E-01
                       0.0000000000E+00  5.0000000000E-01  4.4149000000E-01
                       5.0000000000E-01  0.0000000000E+00  5.5851000000E-01
                       0.0000000000E+00  5.0000000000E-01  6.7829900000E-01
                       5.0000000000E-01  0.0000000000E+00  7.9532000000E-01
            znucl       50.00000   34.00000

================================================================================

 chkinp: Checking input parameters for consistency, jdtset=   1.

 chkinp: Checking input parameters for consistency, jdtset=   2.

 chkinp: Checking input parameters for consistency, jdtset=   3.

 chkinp: Checking input parameters for consistency, jdtset=   4.

 chkinp: Checking input parameters for consistency, jdtset=   5.

 chkinp: Checking input parameters for consistency, jdtset=   6.
 DATA TYPE INFORMATION: 
 REAL:      Data type name: REAL(DP) 
            Kind value:      8
            Precision:      15
            Smallest nonnegligible quantity relative to 1: 0.22204460E-015
            Smallest positive number:                      0.22250739E-307
            Largest representable number:                  0.17976931E+309
 INTEGER:   Data type name: INTEGER(default) 
            Kind value: 4
            Bit size:   32
            Largest representable number: 2147483647
 LOGICAL:   Data type name: LOGICAL 
            Kind value: 4
 CHARACTER: Data type name: CHARACTER             Kind value: 1

  ==== OpenMP parallelism is OFF ====
 
  ==== Using MPI-2 specifications ==== 
  MPI-IO support is ON
  xmpi_tag_ub ................   2147483647
  xmpi_bsize_ch ..............            1
  xmpi_bsize_int .............            4
  xmpi_bsize_sp ..............            4
  xmpi_bsize_dp ..............            8
  xmpi_bsize_spc .............            8
  xmpi_bsize_dpc .............           16
  xmpio_bsize_frm ............            4
  xmpi_address_kind ..........            8
  xmpi_offset_kind ...........            8
  MPI_WTICK ..................    1.0000000000000001E-009

================================================================================
== DATASET  1 ==================================================================
-   mpi_nproc: 6, omp_nthreads: -1 (-1 if OMP is not activated)


--- !COMMENT
src_file: m_xgScalapack.F90
src_line: 236
message: |
    xgScalapack in auto mode
...


 getdim_nloc : deduce lmnmax  =  18, lnmax  =   6,
                      lmnmaxso=  18, lnmaxso=   6.
 Exchange-correlation functional for the present dataset will be:
  GGA: Perdew-Burke-Ernzerhof functional - ixc=11
 Citation for XC functional:
  J.P.Perdew, K.Burke, M.Ernzerhof, PRL 77, 3865 (1996)

 Unit cell volume ucvol=  2.6136848E+03 bohr^3
 Angles (23,13,12)=  9.00000000E+01  9.00000000E+01  9.00000000E+01 degrees

 getcut: wavevector=  0.0000  0.0000  0.0000  ngfft=  36  36 192
         ecut(hartree)=     22.500   => boxcut(ratio)=   2.07294
- pspini: atom type   1  psp file is ../../../Psps_for_tests/ATOMICDATA_NC/Sn.psp8
- pspatm: opening atomic psp file    ../../../Psps_for_tests/ATOMICDATA_NC/Sn.psp8
- Sn    ONCVPSP  r_core=  2.27  2.62  1.86
- 50.00000  14.00000    150810                znucl, zion, pspdat
    8   11    2    4       600   0.00000      pspcod,pspxc,lmax,lloc,mmax,r2well
    5.99000000000000    6.50000000000000    0.00000000000000   rchrg,fchrg,qchrg
     nproj     2     2     2
     extension_switch     1
  valence charge integrates to:    13.912521222389802     
  pspatm : epsatm=   32.65190642
         --- l  ekb(1:nproj) -->
             0    5.462393    0.682281
             1    4.443814    0.825686
             2   -5.382195   -1.704077
 pspatm: atomic psp has been read  and splines computed

- pspini: atom type   2  psp file is ../../../Psps_for_tests/ATOMICDATA_NC/Se.psp8
- pspatm: opening atomic psp file    ../../../Psps_for_tests/ATOMICDATA_NC/Se.psp8
- Se    ONCVPSP  r_core=  1.82  1.50  1.91
- 34.00000  16.00000    150729                znucl, zion, pspdat
    8   11    2    4       600   0.00000      pspcod,pspxc,lmax,lloc,mmax,r2well
    5.99000000000000    5.00000000000000    0.00000000000000   rchrg,fchrg,qchrg
     nproj     2     2     2
     extension_switch     1
  valence charge integrates to:    15.981819523532332     
  pspatm : epsatm=   29.53325930
         --- l  ekb(1:nproj) -->
             0    8.612261    0.939919
             1    6.984962    1.281898
             2   -9.322521   -3.856218
 pspatm: atomic psp has been read  and splines computed

   6.71599790E+04                                ecore*ucvol(ha*bohr**3)
 ==== Info on pseudopotentials ====
  Norm-conserving pseudopotentials
  Number of pseudopotentials ..    2
  Number of types of atoms   ..    2
  Scalar calculation (no spin-orbit term)
  Nonlocal part applied using Legendre polynomials
  Max number of non-local projectors over l and type   2
  Highest angular momentum +1 .......   3
  Max number of (l,n)   components ..   6
  Max number of (l,m,n) components ..   6

 Pseudo-Core Charge Info: 
   Number of radial points for pseudo-core charge .. 2501
   XC core-correction treatment (optnlxccc) ........    1
   Radius for pseudo-core charge for each type ..... 

  - Atom type    1 has pseudo-core radius ..  5.9900
  - Atom type    2 has pseudo-core radius ..  5.9900

 Info on the Q-grid used for form factors in spline form: 
   Number of q-points for radial functions ffspl ..   9263
   Number of q-points for vlspl ...................   9263
   vloc is computed in Reciprocal Space
   model core charge treated in real-space

  XC functional for type 1 is 11
  Pseudo valence available: yes
  XC functional for type 2 is 11
  Pseudo valence available: yes

 wfconv:    92 bands initialized randomly with npw= 13362, for ikpt=     1
 wfconv:    92 bands initialized randomly with npw= 13336, for ikpt=     2
_setup2: Arith. and geom. avg. npw (full set) are   13323.375   13323.364
 initro: for itypat=  1, take pseudo charge density from pp file
 initro: for itypat=  2, take pseudo charge density from pp file

================================================================================

 getcut: wavevector=  0.0000  0.0000  0.0000  ngfft=  36  36 192
         ecut(hartree)=     22.500   => boxcut(ratio)=   2.07294

 1/G**2 cut-off applied in the following step : cutoff-mode = CRYSTAL

  --------------------------------------------------------------
  Van der Waals DFT-D2 semi-empirical dispersion potential added
      with following parameters:
      Specie  C6 (J.nm^6.mol^-1)  R0 (Ang)
      ------------------------------------
         Sn           38.71         1.804
         Se           12.64         1.771

      Scaling factor   =   0.75
      Damping parameter=  20.00
      Cut-off radius   = 130.92 bohr

      Number of pairs contributing =   279120
      DFT-D2 energy contribution   =   -1.62623E-01 Ha
  --------------------------------------------------------------


 1/G**2 cut-off applied in the following step : cutoff-mode = CRYSTAL

 1/G**2 cut-off applied in the following step : cutoff-mode = CRYSTAL

--- !WARNING
src_file: m_drivexc.F90
src_line: 707
message: |
    Density went too small (lower than xc_denpos) at 13492 points
    and was set to xc_denpos =   1.00E-14. Lowest was  -0.64E-03.
    Likely due to too low boxcut or too low ecut for pseudopotential core charge.
...


 ITER STEP NUMBER     1
 vtorho: nnsclo_now = 2, note that nnsclo, dbl_nnsclo, istep= 0 0 1
 Total charge density [el/Bohr^3]
      Maximum=    2.1213E+00  at reduced coord.    0.5000    0.9167    0.5521
      Minimum=    2.5473E-03  at reduced coord.    0.0000    0.2500    0.0208
   Integrated=    1.8000E+02

 1/G**2 cut-off applied in the following step : cutoff-mode = CRYSTAL
 ETOT  1  -1168.2234503020    -1.168E+03 8.600E-01 1.749E+05
 scprqt: <Vxc>= -3.5220679E-01 hartree

 Simple mixing update:
  residual square of the potential:    3900.7290891731191
 scfcv_core: previous iteration took 52.67 [s]

 ITER STEP NUMBER     2
 vtorho: nnsclo_now = 2, note that nnsclo, dbl_nnsclo, istep= 0 0 2
 Total charge density [el/Bohr^3]
      Maximum=    2.2439E+00  at reduced coord.    0.5000    0.0000    0.5417
      Minimum=    1.3181E-05  at reduced coord.    0.5000    0.0000    0.0365
   Integrated=    1.8000E+02
 ETOT  2  -1190.0940359356    -2.187E+01 8.101E-02 2.684E+05
 scprqt: <Vxc>= -2.9633414E-01 hartree

 Pulay update with  1 previous iterations:
 mixing of old trial potential: alpha(m:m-4)=  0.478      0.522
 scfcv_core: previous iteration took 51.68 [s]

 ITER STEP NUMBER     3
 vtorho: nnsclo_now = 1, note that nnsclo, dbl_nnsclo, istep= 0 0 3
 Total charge density [el/Bohr^3]
      Maximum=    2.2318E+00  at reduced coord.    0.5000    0.0000    0.8125
      Minimum=    7.4897E-06  at reduced coord.    0.0000    0.0000    0.0000
   Integrated=    1.8000E+02
 ETOT  3  -1193.3825777163    -3.289E+00 2.351E-02 2.503E+03
 scprqt: <Vxc>= -3.0070516E-01 hartree

 Pulay update with  2 previous iterations:
 mixing of old trial potential: alpha(m:m-4)=  0.573      0.156      0.271
 scfcv_core: previous iteration took 26.23 [s]

 ITER STEP NUMBER     4
 vtorho: nnsclo_now = 1, note that nnsclo, dbl_nnsclo, istep= 0 0 4
 Total charge density [el/Bohr^3]
      Maximum=    2.2186E+00  at reduced coord.    0.0000    0.5000    0.6615
      Minimum=    6.5091E-06  at reduced coord.    0.0000    0.0000    0.0000
   Integrated=    1.8000E+02
 ETOT  4  -1193.5437216910    -1.611E-01 9.310E-03 7.192E+03
 scprqt: <Vxc>= -3.0301761E-01 hartree

 Pulay update with  3 previous iterations:
 mixing of old trial potential: alpha(m:m-4)=  0.920     -0.587E-01 -0.955E-02  0.149
 scfcv_core: previous iteration took 26.22 [s]

 ITER STEP NUMBER     5
 vtorho: nnsclo_now = 1, note that nnsclo, dbl_nnsclo, istep= 0 0 5
 Total charge density [el/Bohr^3]
      Maximum=    2.2154E+00  at reduced coord.    0.5000    0.0000    0.5417
      Minimum=    6.6049E-06  at reduced coord.    0.0000    0.0000    0.0000
   Integrated=    1.8000E+02
 ETOT  5  -1193.6009013332    -5.718E-02 3.274E-03 3.496E+03
 scprqt: <Vxc>= -3.0436710E-01 hartree

 Pulay update with  4 previous iterations:
 mixing of old trial potential: alpha(m:m-4)=  0.800      0.188     -0.550E-01 -0.280E-01  0.953E-01
 scfcv_core: previous iteration took 26.18 [s]

 ITER STEP NUMBER     6
 vtorho: nnsclo_now = 1, note that nnsclo, dbl_nnsclo, istep= 0 0 6
 Total charge density [el/Bohr^3]
      Maximum=    2.2144E+00  at reduced coord.    0.0000    0.5000    0.6615
      Minimum=    6.6582E-06  at reduced coord.    0.0000    0.0000    0.0000
   Integrated=    1.8000E+02
 ETOT  6  -1193.6115763521    -1.068E-02 1.315E-03 3.391E+03
 scprqt: <Vxc>= -3.0517447E-01 hartree

 Pulay update with  5 previous iterations:
 mixing of old trial potential: alpha(m:m-4)=  0.819      0.102      0.910E-03  0.382E-01 -0.330E-01
 scfcv_core: previous iteration took 26.28 [s]

 ITER STEP NUMBER     7
 vtorho: nnsclo_now = 1, note that nnsclo, dbl_nnsclo, istep= 0 0 7
 Total charge density [el/Bohr^3]
      Maximum=    2.2139E+00  at reduced coord.    0.0000    0.5000    0.6615
      Minimum=    6.7720E-06  at reduced coord.    0.0000    0.0000    0.0000
   Integrated=    1.8000E+02
 ETOT  7  -1193.6225986962    -1.102E-02 1.033E-03 2.220E+03
 scprqt: <Vxc>= -3.0564265E-01 hartree

 Pulay update with  6 previous iterations:
 mixing of old trial potential: alpha(m:m-4)=  0.925     -0.112      0.183     -0.708E-01  0.406E-01
 scfcv_core: previous iteration took 26.27 [s]

 ITER STEP NUMBER     8
 vtorho: nnsclo_now = 1, note that nnsclo, dbl_nnsclo, istep= 0 0 8
 Total charge density [el/Bohr^3]
      Maximum=    2.2136E+00  at reduced coord.    0.0000    0.5000    0.6615
      Minimum=    6.8903E-06  at reduced coord.    0.0000    0.0000    0.0000
   Integrated=    1.8000E+02
 ETOT  8  -1193.6276861967    -5.088E-03 7.588E-04 1.668E+03
 scprqt: <Vxc>= -3.0596884E-01 hartree

 Pulay update with  7 previous iterations:
 mixing of old trial potential: alpha(m:m-4)=   1.21     -0.310      0.106      0.469E-01 -0.142
 scfcv_core: previous iteration took 26.23 [s]

 ITER STEP NUMBER     9
 vtorho: nnsclo_now = 1, note that nnsclo, dbl_nnsclo, istep= 0 0 9
 Total charge density [el/Bohr^3]
      Maximum=    2.2132E+00  at reduced coord.    0.0000    0.5000    0.6615
      Minimum=    7.1197E-06  at reduced coord.    0.0000    0.0000    0.0000
   Integrated=    1.8000E+02
 ETOT  9  -1193.6340418767    -6.356E-03 6.288E-04 9.158E+02
 scprqt: <Vxc>= -3.0637819E-01 hartree

 Pulay update with  7 previous iterations:
 mixing of old trial potential: alpha(m:m-4)=  0.968     -0.390E-01  0.195      0.123     -0.404E-01
 scfcv_core: previous iteration took 26.24 [s]

 ITER STEP NUMBER    10
 vtorho: nnsclo_now = 1, note that nnsclo, dbl_nnsclo, istep= 0 0 10
 Total charge density [el/Bohr^3]
      Maximum=    2.2122E+00  at reduced coord.    0.0000    0.5000    0.6615
      Minimum=    7.6038E-06  at reduced coord.    0.0000    0.0000    0.0000
   Integrated=    1.8000E+02
 ETOT 10  -1193.6390319724    -4.990E-03 3.776E-04 3.576E+02
 scprqt: <Vxc>= -3.0717350E-01 hartree

 Pulay update with  7 previous iterations:
 mixing of old trial potential: alpha(m:m-4)=  0.457      0.458      0.240      0.212     -0.856E-01
 scfcv_core: previous iteration took 25.91 [s]

 ITER STEP NUMBER    11
 vtorho: nnsclo_now = 1, note that nnsclo, dbl_nnsclo, istep= 0 0 11
 Total charge density [el/Bohr^3]
      Maximum=    2.2122E+00  at reduced coord.    0.0000    0.5000    0.6615
      Minimum=    7.8201E-06  at reduced coord.    0.0000    0.0000    0.0000
   Integrated=    1.8000E+02
 ETOT 11  -1193.6409219408    -1.890E-03 2.364E-04 5.323E+01
 scprqt: <Vxc>= -3.0737214E-01 hartree

 Pulay update with  7 previous iterations:
 mixing of old trial potential: alpha(m:m-4)=   1.29      -1.13      0.744     -0.223E-01  0.398
 scfcv_core: previous iteration took 26.26 [s]

 ITER STEP NUMBER    12
 vtorho: nnsclo_now = 1, note that nnsclo, dbl_nnsclo, istep= 0 0 12
 Total charge density [el/Bohr^3]
      Maximum=    2.2121E+00  at reduced coord.    0.0000    0.5000    0.6615
      Minimum=    7.8556E-06  at reduced coord.    0.0000    0.0000    0.0000
   Integrated=    1.8000E+02
 ETOT 12  -1193.6409014038     2.054E-05 7.487E-05 7.614E+01
 scprqt: <Vxc>= -3.0736065E-01 hartree

 Pulay update with  7 previous iterations:
 mixing of old trial potential: alpha(m:m-4)=   2.20      0.292      -1.72     -0.223      0.915E-01
 scfcv_core: previous iteration took 26.24 [s]

 ITER STEP NUMBER    13
 vtorho: nnsclo_now = 1, note that nnsclo, dbl_nnsclo, istep= 0 0 13
 Total charge density [el/Bohr^3]
      Maximum=    2.2119E+00  at reduced coord.    0.0000    0.5000    0.6615
      Minimum=    8.1474E-06  at reduced coord.    0.0000    0.0000    0.0000
   Integrated=    1.8000E+02
 ETOT 13  -1193.6410061370    -1.047E-04 1.875E-05 4.227E+01
 scprqt: <Vxc>= -3.0747953E-01 hartree

 Pulay update with  7 previous iterations:
 mixing of old trial potential: alpha(m:m-4)=  0.909      0.280      0.700     -0.551     -0.665
 scfcv_core: previous iteration took 26.23 [s]

 ITER STEP NUMBER    14
 vtorho: nnsclo_now = 1, note that nnsclo, dbl_nnsclo, istep= 0 0 14
 Total charge density [el/Bohr^3]
      Maximum=    2.2121E+00  at reduced coord.    0.0000    0.5000    0.6615
      Minimum=    8.2482E-06  at reduced coord.    0.0000    0.0000    0.0000
   Integrated=    1.8000E+02
 ETOT 14  -1193.6410992827    -9.315E-05 4.496E-05 2.940E+01
 scprqt: <Vxc>= -3.0746900E-01 hartree

 Pulay update with  7 previous iterations:
 mixing of old trial potential: alpha(m:m-4)=  0.670     -0.172E-01  0.304      0.502     -0.252
 scfcv_core: previous iteration took 26.24 [s]

 ITER STEP NUMBER    15
 vtorho: nnsclo_now = 1, note that nnsclo, dbl_nnsclo, istep= 0 0 15
 Total charge density [el/Bohr^3]
      Maximum=    2.2120E+00  at reduced coord.    0.0000    0.5000    0.6615
      Minimum=    8.3180E-06  at reduced coord.    0.0000    0.0000    0.0000
   Integrated=    1.8000E+02
 ETOT 15  -1193.6411862797    -8.700E-05 7.975E-06 1.402E+01
 scprqt: <Vxc>= -3.0752065E-01 hartree

 Pulay update with  7 previous iterations:
 mixing of old trial potential: alpha(m:m-4)=   1.17     -0.832E-01 -0.367      0.557     -0.172
 scfcv_core: previous iteration took 26.23 [s]

 ITER STEP NUMBER    16
 vtorho: nnsclo_now = 1, note that nnsclo, dbl_nnsclo, istep= 0 0 16
 Total charge density [el/Bohr^3]
      Maximum=    2.2120E+00  at reduced coord.    0.0000    0.5000    0.6615
      Minimum=    8.5042E-06  at reduced coord.    0.0000    0.0000    0.0000
   Integrated=    1.8000E+02
 ETOT 16  -1193.6412534172    -6.714E-05 3.078E-05 1.262E+00
 scprqt: <Vxc>= -3.0761124E-01 hartree

 Pulay update with  7 previous iterations:
 mixing of old trial potential: alpha(m:m-4)=   1.24      -1.18      0.841     -0.135      0.241
 scfcv_core: previous iteration took 26.23 [s]

 ITER STEP NUMBER    17
 vtorho: nnsclo_now = 1, note that nnsclo, dbl_nnsclo, istep= 0 0 17
 Total charge density [el/Bohr^3]
      Maximum=    2.2120E+00  at reduced coord.    0.0000    0.5000    0.6615
      Minimum=    8.4597E-06  at reduced coord.    0.0000    0.0000    0.0000
   Integrated=    1.8000E+02
 ETOT 17  -1193.6412470660     6.351E-06 3.810E-06 2.375E+00
 scprqt: <Vxc>= -3.0758542E-01 hartree

 Pulay update with  7 previous iterations:
 mixing of old trial potential: alpha(m:m-4)=   1.27      0.161     -0.736      0.346     -0.519E-01
 scfcv_core: previous iteration took 26.23 [s]

 ITER STEP NUMBER    18
 vtorho: nnsclo_now = 1, note that nnsclo, dbl_nnsclo, istep= 0 0 18
 Total charge density [el/Bohr^3]
      Maximum=    2.2120E+00  at reduced coord.    0.0000    0.5000    0.6615
      Minimum=    8.5706E-06  at reduced coord.    0.0000    0.0000    0.0000
   Integrated=    1.8000E+02
 ETOT 18  -1193.6412544623    -7.396E-06 1.810E-05 6.489E-01
 scprqt: <Vxc>= -3.0761438E-01 hartree

 Pulay update with  7 previous iterations:
 mixing of old trial potential: alpha(m:m-4)=   1.05      0.286     -0.225     -0.173E-01 -0.358E-01
 scfcv_core: previous iteration took 26.21 [s]

 ITER STEP NUMBER    19
 vtorho: nnsclo_now = 1, note that nnsclo, dbl_nnsclo, istep= 0 0 19
 Total charge density [el/Bohr^3]
      Maximum=    2.2120E+00  at reduced coord.    0.0000    0.5000    0.6615
      Minimum=    8.6228E-06  at reduced coord.    0.0000    0.0000    0.0000
   Integrated=    1.8000E+02
 ETOT 19  -1193.6412573046    -2.842E-06 2.298E-06 2.796E-02
 scprqt: <Vxc>= -3.0762832E-01 hartree

 Pulay update with  7 previous iterations:
 mixing of old trial potential: alpha(m:m-4)=  0.924     -0.226E-01  0.255     -0.146      0.600E-01
 scfcv_core: previous iteration took 26.26 [s]

 ITER STEP NUMBER    20
 vtorho: nnsclo_now = 1, note that nnsclo, dbl_nnsclo, istep= 0 0 20
 Total charge density [el/Bohr^3]
      Maximum=    2.2120E+00  at reduced coord.    0.0000    0.5000    0.6615
      Minimum=    8.6252E-06  at reduced coord.    0.0000    0.0000    0.0000
   Integrated=    1.8000E+02
 ETOT 20  -1193.6412570465     2.581E-07 9.330E-06 1.060E-01
 scprqt: <Vxc>= -3.0762731E-01 hartree

 Pulay update with  7 previous iterations:
 mixing of old trial potential: alpha(m:m-4)=   1.57      0.118     -0.796     -0.725E-02  0.113
 scfcv_core: previous iteration took 26.29 [s]

 ITER STEP NUMBER    21
 vtorho: nnsclo_now = 1, note that nnsclo, dbl_nnsclo, istep= 0 0 21
 Total charge density [el/Bohr^3]
      Maximum=    2.2120E+00  at reduced coord.    0.0000    0.5000    0.6615
      Minimum=    8.6534E-06  at reduced coord.    0.0000    0.0000    0.0000
   Integrated=    1.8000E+02
 ETOT 21  -1193.6412576734    -6.268E-07 1.672E-06 3.521E-03
 scprqt: <Vxc>= -3.0763483E-01 hartree

 Pulay update with  7 previous iterations:
 mixing of old trial potential: alpha(m:m-4)=  0.951      0.448E-01  0.626E-01 -0.440E-01 -0.210E-01
 scfcv_core: previous iteration took 26.24 [s]

 ITER STEP NUMBER    22
 vtorho: nnsclo_now = 1, note that nnsclo, dbl_nnsclo, istep= 0 0 22
 Total charge density [el/Bohr^3]
      Maximum=    2.2120E+00  at reduced coord.    0.0000    0.5000    0.6615
      Minimum=    8.6572E-06  at reduced coord.    0.0000    0.0000    0.0000
   Integrated=    1.8000E+02
 ETOT 22  -1193.6412577009    -2.751E-08 5.740E-06 3.847E-04
 scprqt: <Vxc>= -3.0763653E-01 hartree

 Pulay update with  7 previous iterations:
 mixing of old trial potential: alpha(m:m-4)=  0.754      0.298     -0.705E-01  0.179E-01  0.882E-02
 scfcv_core: previous iteration took 26.25 [s]

 ITER STEP NUMBER    23
 vtorho: nnsclo_now = 1, note that nnsclo, dbl_nnsclo, istep= 0 0 23
 Total charge density [el/Bohr^3]
      Maximum=    2.2120E+00  at reduced coord.    0.0000    0.5000    0.6615
      Minimum=    8.6579E-06  at reduced coord.    0.0000    0.0000    0.0000
   Integrated=    1.8000E+02
 ETOT 23  -1193.6412577051    -4.247E-09 1.642E-06 3.139E-05
 scprqt: <Vxc>= -3.0763694E-01 hartree

 Pulay update with  7 previous iterations:
 mixing of old trial potential: alpha(m:m-4)=   1.18     -0.270      0.640E-01  0.319E-01 -0.799E-02
 scfcv_core: previous iteration took 26.19 [s]

 ITER STEP NUMBER    24
 vtorho: nnsclo_now = 1, note that nnsclo, dbl_nnsclo, istep= 0 0 24
 Total charge density [el/Bohr^3]
      Maximum=    2.2120E+00  at reduced coord.    0.0000    0.5000    0.6615
      Minimum=    8.6573E-06  at reduced coord.    0.0000    0.0000    0.0000
   Integrated=    1.8000E+02
 ETOT 24  -1193.6412577051     5.548E-11 3.455E-06 3.733E-06
 scprqt: <Vxc>= -3.0763695E-01 hartree

 Pulay update with  7 previous iterations:
 mixing of old trial potential: alpha(m:m-4)=   1.09      0.314     -0.400     -0.281E-01  0.389E-01
 scfcv_core: previous iteration took 26.21 [s]

 ITER STEP NUMBER    25
 vtorho: nnsclo_now = 1, note that nnsclo, dbl_nnsclo, istep= 0 0 25
 Total charge density [el/Bohr^3]
      Maximum=    2.2120E+00  at reduced coord.    0.0000    0.5000    0.6615
      Minimum=    8.6572E-06  at reduced coord.    0.0000    0.0000    0.0000
   Integrated=    1.8000E+02
 ETOT 25  -1193.6412577057    -5.725E-10 1.621E-06 2.548E-06
 scprqt: <Vxc>= -3.0763698E-01 hartree

 Pulay update with  7 previous iterations:
 mixing of old trial potential: alpha(m:m-4)=  0.631      0.356      0.187     -0.170     -0.133E-01
 scfcv_core: previous iteration took 26.25 [s]

 ITER STEP NUMBER    26
 vtorho: nnsclo_now = 1, note that nnsclo, dbl_nnsclo, istep= 0 0 26
 Total charge density [el/Bohr^3]
      Maximum=    2.2120E+00  at reduced coord.    0.0000    0.5000    0.6615
      Minimum=    8.6573E-06  at reduced coord.    0.0000    0.0000    0.0000
   Integrated=    1.8000E+02
 ETOT 26  -1193.6412577055     1.935E-10 2.086E-06 3.213E-07
 scprqt: <Vxc>= -3.0763703E-01 hartree

 Pulay update with  7 previous iterations:
 mixing of old trial potential: alpha(m:m-4)=   1.79     -0.626     -0.210      0.385E-01 -0.437E-02
 scfcv_core: previous iteration took 26.21 [s]

 ITER STEP NUMBER    27
 vtorho: nnsclo_now = 1, note that nnsclo, dbl_nnsclo, istep= 0 0 27
 Total charge density [el/Bohr^3]
      Maximum=    2.2120E+00  at reduced coord.    0.0000    0.5000    0.6615
      Minimum=    8.6572E-06  at reduced coord.    0.0000    0.0000    0.0000
   Integrated=    1.8000E+02
 ETOT 27  -1193.6412577056    -1.171E-10 1.599E-06 9.635E-08
 scprqt: <Vxc>= -3.0763702E-01 hartree

 Pulay update with  7 previous iterations:
 mixing of old trial potential: alpha(m:m-4)=  0.845      0.274     -0.105     -0.558E-02 -0.147E-02
 scfcv_core: previous iteration took 26.20 [s]

 ITER STEP NUMBER    28
 vtorho: nnsclo_now = 1, note that nnsclo, dbl_nnsclo, istep= 0 0 28
 Total charge density [el/Bohr^3]
      Maximum=    2.2120E+00  at reduced coord.    0.0000    0.5000    0.6615
      Minimum=    8.6572E-06  at reduced coord.    0.0000    0.0000    0.0000
   Integrated=    1.8000E+02
 ETOT 28  -1193.6412577056     1.091E-11 1.254E-06 1.341E-08
 scprqt: <Vxc>= -3.0763701E-01 hartree

 Pulay update with  7 previous iterations:
 mixing of old trial potential: alpha(m:m-4)=  0.943      0.630E-01  0.385E-01 -0.234E-01 -0.184E-01
 scfcv_core: previous iteration took 26.24 [s]

 ITER STEP NUMBER    29
 vtorho: nnsclo_now = 1, note that nnsclo, dbl_nnsclo, istep= 0 0 29
 Total charge density [el/Bohr^3]
      Maximum=    2.2120E+00  at reduced coord.    0.0000    0.5000    0.6615
      Minimum=    8.6572E-06  at reduced coord.    0.0000    0.0000    0.0000
   Integrated=    1.8000E+02
 ETOT 29  -1193.6412577056    -8.276E-11 1.577E-06 1.797E-09
 scprqt: <Vxc>= -3.0763701E-01 hartree

 Pulay update with  7 previous iterations:
 mixing of old trial potential: alpha(m:m-4)=  0.730      0.274     -0.140E-02 -0.135E-02  0.255E-02
 scfcv_core: previous iteration took 26.19 [s]

 ITER STEP NUMBER    30
 vtorho: nnsclo_now = 1, note that nnsclo, dbl_nnsclo, istep= 0 0 30
 Total charge density [el/Bohr^3]
      Maximum=    2.2120E+00  at reduced coord.    0.0000    0.5000    0.6615
      Minimum=    8.6572E-06  at reduced coord.    0.0000    0.0000    0.0000
   Integrated=    1.8000E+02
 ETOT 30  -1193.6412577057    -1.410E-11 9.922E-07 9.754E-12
 scprqt: <Vxc>= -3.0763701E-01 hartree

 Pulay update with  7 previous iterations:
 mixing of old trial potential: alpha(m:m-4)=  0.838      0.148      0.517E-02  0.444E-02 -0.804E-03
 scfcv_core: previous iteration took 26.21 [s]

 ITER STEP NUMBER    31
 vtorho: nnsclo_now = 1, note that nnsclo, dbl_nnsclo, istep= 0 0 31
 Total charge density [el/Bohr^3]
[...]
                       0.000000  0.000000  0.000000  0.000000  0.000000  0.000000
                       0.000000  0.000000  0.000000  0.000000  0.000000  0.000000
                       0.000000  0.000000  0.000000  0.000000  0.000000  0.000000
                       0.000000  0.000000  0.000000  0.000000  0.000000  0.000000
                       0.000000  0.000000  0.000000  0.000000  0.000000  0.000000
                       0.000000  0.000000  0.000000  0.000000  0.000000  0.000000
                       0.000000  0.000000  0.000000  0.000000  0.000000  0.000000
                       0.000000  0.000000  0.000000  0.000000  0.000000  0.000000
                       0.000000  0.000000  0.000000  0.000000  0.000000  0.000000
                       0.000000  0.000000
              occ5     2.000000  2.000000  2.000000  2.000000  2.000000  2.000000
                       2.000000  2.000000  2.000000  2.000000  2.000000  2.000000
                       2.000000  2.000000  2.000000  2.000000  2.000000  2.000000
                       2.000000  2.000000  2.000000  2.000000  2.000000  2.000000
                       2.000000  2.000000  2.000000  2.000000  2.000000  2.000000
                       2.000000  2.000000  2.000000  2.000000  2.000000  2.000000
                       2.000000  2.000000  2.000000  2.000000  2.000000  2.000000
                       2.000000  2.000000  2.000000  2.000000  2.000000  2.000000
                       2.000000  2.000000  2.000000  2.000000  2.000000  2.000000
                       2.000000  2.000000  2.000000  2.000000  2.000000  2.000000
                       2.000000  2.000000  2.000000  2.000000  2.000000  2.000000
                       2.000000  2.000000  2.000000  2.000000  2.000000  2.000000
                       2.000000  2.000000  2.000000  2.000000  2.000000  2.000000
                       2.000000  2.000000  2.000000  2.000000  2.000000  2.000000
                       2.000000  2.000000  2.000000  2.000000  2.000000  2.000000
                       0.000000  0.000000  0.000000  0.000000  0.000000  0.000000
                       0.000000  0.000000  0.000000  0.000000  0.000000  0.000000
                       0.000000  0.000000  0.000000  0.000000  0.000000  0.000000
                       0.000000  0.000000  0.000000  0.000000  0.000000  0.000000
                       0.000000  0.000000  0.000000  0.000000  0.000000  0.000000
                       0.000000  0.000000  0.000000  0.000000  0.000000  0.000000
                       0.000000  0.000000  0.000000  0.000000  0.000000  0.000000
                       0.000000  0.000000  0.000000  0.000000  0.000000  0.000000
                       0.000000  0.000000  0.000000  0.000000  0.000000  0.000000
                       0.000000  0.000000  0.000000  0.000000  0.000000  0.000000
                       0.000000  0.000000  0.000000  0.000000  0.000000  0.000000
                       0.000000  0.000000  0.000000  0.000000  0.000000  0.000000
                       0.000000  0.000000  0.000000  0.000000  0.000000  0.000000
                       0.000000  0.000000  0.000000  0.000000  0.000000  0.000000
                       0.000000  0.000000  0.000000  0.000000  0.000000  0.000000
                       0.000000  0.000000  0.000000  0.000000  0.000000  0.000000
                       0.000000  0.000000  0.000000  0.000000  0.000000  0.000000
                       0.000000  0.000000  0.000000  0.000000  0.000000  0.000000
                       0.000000  0.000000
              occ6     2.000000  2.000000  2.000000  2.000000  2.000000  2.000000
                       2.000000  2.000000  2.000000  2.000000  2.000000  2.000000
                       2.000000  2.000000  2.000000  2.000000  2.000000  2.000000
                       2.000000  2.000000  2.000000  2.000000  2.000000  2.000000
                       2.000000  2.000000  2.000000  2.000000  2.000000  2.000000
                       2.000000  2.000000  2.000000  2.000000  2.000000  2.000000
                       2.000000  2.000000  2.000000  2.000000  2.000000  2.000000
                       2.000000  2.000000  2.000000  2.000000  2.000000  2.000000
                       2.000000  2.000000  2.000000  2.000000  2.000000  2.000000
                       2.000000  2.000000  2.000000  2.000000  2.000000  2.000000
                       2.000000  2.000000  2.000000  2.000000  2.000000  2.000000
                       2.000000  2.000000  2.000000  2.000000  2.000000  2.000000
                       2.000000  2.000000  2.000000  2.000000  2.000000  2.000000
                       2.000000  2.000000  2.000000  2.000000  2.000000  2.000000
                       2.000000  2.000000  2.000000  2.000000  2.000000  2.000000
                       0.000000  0.000000  0.000000  0.000000  0.000000  0.000000
                       0.000000  0.000000  0.000000  0.000000  0.000000  0.000000
                       0.000000  0.000000  0.000000  0.000000  0.000000  0.000000
                       0.000000  0.000000  0.000000  0.000000  0.000000  0.000000
                       0.000000  0.000000  0.000000  0.000000  0.000000  0.000000
                       0.000000  0.000000  0.000000  0.000000  0.000000  0.000000
                       0.000000  0.000000  0.000000  0.000000  0.000000  0.000000
                       0.000000  0.000000  0.000000  0.000000  0.000000  0.000000
                       0.000000  0.000000  0.000000  0.000000  0.000000  0.000000
                       0.000000  0.000000  0.000000  0.000000  0.000000  0.000000
                       0.000000  0.000000  0.000000  0.000000  0.000000  0.000000
                       0.000000  0.000000  0.000000  0.000000  0.000000  0.000000
                       0.000000  0.000000  0.000000  0.000000  0.000000  0.000000
                       0.000000  0.000000  0.000000  0.000000  0.000000  0.000000
                       0.000000  0.000000  0.000000  0.000000  0.000000  0.000000
                       0.000000  0.000000  0.000000  0.000000  0.000000  0.000000
                       0.000000  0.000000  0.000000  0.000000  0.000000  0.000000
                       0.000000  0.000000  0.000000  0.000000  0.000000  0.000000
                       0.000000  0.000000
        optdriver1          0
        optdriver2          0
        optdriver3          0
        optdriver4          1
        optdriver5          1
        optdriver6          1
            prtwf1          1
            prtwf2          1
            prtwf3          1
            prtwf4          3
            prtwf5          3
            prtwf6          3
            rfdir1          0       0       0
            rfdir2          0       0       0
            rfdir3          0       0       0
            rfdir4          1       0       0
            rfdir5          0       1       0
            rfdir6          0       0       1
           rfelfd1          0
           rfelfd2          0
           rfelfd3          0
           rfelfd4          2
           rfelfd5          2
           rfelfd6          2
            rprim      1.0000000000E+00  0.0000000000E+00  0.0000000000E+00
                       0.0000000000E+00  1.0000000000E+00  0.0000000000E+00
                       0.0000000000E+00  0.0000000000E+00  5.5880443615E+00
           shiftk      5.00000000E-01  5.00000000E-01  5.00000000E-01
          spgroup         129
           strten1     1.3140067227E-02  1.3140067227E-02  1.2883775118E-02
                       0.0000000000E+00  0.0000000000E+00  0.0000000000E+00
           symrel      1  0  0   0  1  0   0  0  1      -1  0  0   0 -1  0   0  0 -1
                      -1  0  0   0  1  0   0  0 -1       1  0  0   0 -1  0   0  0  1
                      -1  0  0   0 -1  0   0  0  1       1  0  0   0  1  0   0  0 -1
                       1  0  0   0 -1  0   0  0 -1      -1  0  0   0  1  0   0  0  1
                       0  1  0   1  0  0   0  0  1       0 -1  0  -1  0  0   0  0 -1
                       0 -1  0   1  0  0   0  0 -1       0  1  0  -1  0  0   0  0  1
                       0 -1  0  -1  0  0   0  0  1       0  1  0   1  0  0   0  0 -1
                       0  1  0  -1  0  0   0  0 -1       0 -1  0   1  0  0   0  0  1
            tnons      0.0000000  0.0000000  0.0000000     0.5000000  0.5000000 -0.0000000
                       0.5000000  0.5000000 -0.0000000     0.0000000  0.0000000  0.0000000
                      -0.0000000  0.0000000  0.0000000     0.5000000  0.5000000 -0.0000000
                       0.5000000  0.5000000 -0.0000000    -0.0000000  0.0000000  0.0000000
                       0.5000000  0.5000000  0.0000000     0.0000000 -0.0000000 -0.0000000
                       0.0000000 -0.0000000 -0.0000000     0.5000000  0.5000000  0.0000000
                       0.5000000  0.5000000  0.0000000     0.0000000  0.0000000 -0.0000000
                       0.0000000  0.0000000 -0.0000000     0.5000000  0.5000000  0.0000000
           tolwfr      1.00000000E-20
            typat      1  1  1  1  1  1  2  2  2  2  2  2
           vdw_xc           5
              wtk1       0.06250    0.12500    0.12500    0.12500    0.06250    0.12500
                         0.12500    0.06250    0.12500    0.06250
              wtk2       0.06250    0.12500    0.12500    0.12500    0.06250    0.12500
                         0.12500    0.06250    0.12500    0.06250
              wtk3       0.03125    0.03125    0.03125    0.03125    0.03125    0.03125
                         0.03125    0.03125    0.03125    0.03125    0.03125    0.03125
                         0.03125    0.03125    0.03125    0.03125    0.03125    0.03125
                         0.03125    0.03125    0.03125    0.03125    0.03125    0.03125
                         0.03125    0.03125    0.03125    0.03125    0.03125    0.03125
                         0.03125    0.03125
              wtk4       0.03125    0.03125    0.03125    0.03125    0.03125    0.03125
                         0.03125    0.03125    0.03125    0.03125    0.03125    0.03125
                         0.03125    0.03125    0.03125    0.03125    0.03125    0.03125
                         0.03125    0.03125    0.03125    0.03125    0.03125    0.03125
                         0.03125    0.03125    0.03125    0.03125    0.03125    0.03125
                         0.03125    0.03125
              wtk5       0.03125    0.03125    0.03125    0.03125    0.03125    0.03125
                         0.03125    0.03125    0.03125    0.03125    0.03125    0.03125
                         0.03125    0.03125    0.03125    0.03125    0.03125    0.03125
                         0.03125    0.03125    0.03125    0.03125    0.03125    0.03125
                         0.03125    0.03125    0.03125    0.03125    0.03125    0.03125
                         0.03125    0.03125
              wtk6       0.03125    0.03125    0.03125    0.03125    0.03125    0.03125
                         0.03125    0.03125    0.03125    0.03125    0.03125    0.03125
                         0.03125    0.03125    0.03125    0.03125    0.03125    0.03125
                         0.03125    0.03125    0.03125    0.03125    0.03125    0.03125
                         0.03125    0.03125    0.03125    0.03125    0.03125    0.03125
                         0.03125    0.03125
           xangst      2.0538509643E+00  0.0000000000E+00  4.6664605720E+00
                       0.0000000000E+00  2.0538509643E+00  7.4160997457E+00
                       2.0538509643E+00  0.0000000000E+00  1.0102202190E+01
                       0.0000000000E+00  2.0538509643E+00  1.2851818410E+01
                       2.0538509643E+00  0.0000000000E+00  1.5537920855E+01
                       0.0000000000E+00  2.0538509643E+00  1.8287560029E+01
                       0.0000000000E+00  2.0538509643E+00  4.6982289365E+00
                       2.0538509643E+00  0.0000000000E+00  7.3843313812E+00
                       0.0000000000E+00  2.0538509643E+00  1.0133970555E+01
                       2.0538509643E+00  0.0000000000E+00  1.2820050046E+01
                       0.0000000000E+00  2.0538509643E+00  1.5569689219E+01
                       2.0538509643E+00  0.0000000000E+00  1.8255791664E+01
            xcart      3.8812158402E+00  0.0000000000E+00  8.8183324910E+00
                       0.0000000000E+00  3.8812158402E+00  1.4014397494E+01
                       3.8812158402E+00  0.0000000000E+00  1.9090395479E+01
                       0.0000000000E+00  3.8812158402E+00  2.4286417105E+01
                       3.8812158402E+00  0.0000000000E+00  2.9362415090E+01
                       0.0000000000E+00  3.8812158402E+00  3.4558480093E+01
                       0.0000000000E+00  3.8812158402E+00  8.8783659996E+00
                       3.8812158402E+00  0.0000000000E+00  1.3954363985E+01
                       0.0000000000E+00  3.8812158402E+00  1.9150428988E+01
                       3.8812158402E+00  0.0000000000E+00  2.4226383596E+01
                       0.0000000000E+00  3.8812158402E+00  2.9422448599E+01
                       3.8812158402E+00  0.0000000000E+00  3.4498446584E+01
             xred      5.0000000000E-01  0.0000000000E+00  2.0329600000E-01
                       0.0000000000E+00  5.0000000000E-01  3.2308500000E-01
                       5.0000000000E-01  0.0000000000E+00  4.4010600000E-01
                       0.0000000000E+00  5.0000000000E-01  5.5989400000E-01
                       5.0000000000E-01  0.0000000000E+00  6.7691500000E-01
                       0.0000000000E+00  5.0000000000E-01  7.9670400000E-01
                       0.0000000000E+00  5.0000000000E-01  2.0468000000E-01
                       5.0000000000E-01  0.0000000000E+00  3.2170100000E-01
                       0.0000000000E+00  5.0000000000E-01  4.4149000000E-01
                       5.0000000000E-01  0.0000000000E+00  5.5851000000E-01
                       0.0000000000E+00  5.0000000000E-01  6.7829900000E-01
                       5.0000000000E-01  0.0000000000E+00  7.9532000000E-01
            znucl       50.00000   34.00000

================================================================================
  

================================================================================

 Suggested references for the acknowledgment of ABINIT usage.

 The users of ABINIT have little formal obligations with respect to the ABINIT group
 (those specified in the GNU General Public License, http://www.gnu.org/copyleft/gpl.txt).
 However, it is common practice in the scientific literature,
 to acknowledge the efforts of people that have made the research possible.
 In this spirit, please find below suggested citations of work written by ABINIT developers,
 corresponding to implementations inside of ABINIT that you have used in the present run.
 Note also that it will be of great value to readers of publications presenting these results,
 to read papers enabling them to understand the theoretical formalism and details
 of the ABINIT implementation.
 For information on why they are suggested, see also https://docs.abinit.org/theory/acknowledgments.
-
- [1] The Abinit project: Impact, environment and recent developments.
- Computer Phys. Comm. 248, 107042 (2020).
- X.Gonze, B. Amadon, G. Antonius, F.Arnardi, L.Baguet, J.-M.Beuken,
- J.Bieder, F.Bottin, J.Bouchet, E.Bousquet, N.Brouwer, F.Bruneval,
- G.Brunin, T.Cavignac, J.-B. Charraud, Wei Chen, M.Cote, S.Cottenier,
- J.Denier, G.Geneste, Ph.Ghosez, M.Giantomassi, Y.Gillet, O.Gingras,
- D.R.Hamann, G.Hautier, Xu He, N.Helbig, N.Holzwarth, Y.Jia, F.Jollet,
- W.Lafargue-Dit-Hauret, K.Lejaeghere, M.A.L.Marques, A.Martin, C.Martins,
- H.P.C. Miranda, F.Naccarato, K. Persson, G.Petretto, V.Planes, Y.Pouillon,
- S.Prokhorenko, F.Ricci, G.-M.Rignanese, A.H.Romero, M.M.Schmitt, M.Torrent,
- M.J.van Setten, B.Van Troeye, M.J.Verstraete, G.Zerah and J.W.Zwanzig
- Comment: the fifth generic paper describing the ABINIT project.
- Note that a version of this paper, that is not formatted for Computer Phys. Comm. 
- is available at https://www.abinit.org/sites/default/files/ABINIT20.pdf .
- The licence allows the authors to put it on the Web.
- DOI and bibtex: see https://docs.abinit.org/theory/bibliography/#gonze2020
-
- [2] First-principles responses of solids to atomic displacements and homogeneous electric fields:,
- implementation of a conjugate-gradient algorithm. X. Gonze, Phys. Rev. B55, 10337 (1997).
- Comment: Non-vanishing rfphon and/or rfelfd, in the norm-conserving case.
- DOI and bibtex: see https://docs.abinit.org/theory/bibliography/#gonze1997
-
- [3] Dynamical matrices, Born effective charges, dielectric permittivity tensors, and ,
- interatomic force constants from density-functional perturbation theory,
- X. Gonze and C. Lee, Phys. Rev. B55, 10355 (1997).
- Comment: Non-vanishing rfphon and/or rfelfd, in the norm-conserving case.
- DOI and bibtex: see https://docs.abinit.org/theory/bibliography/#gonze1997a
-
- [4] Optimized norm-conserving Vanderbilt pseudopotentials.
- D.R. Hamann, Phys. Rev. B 88, 085117 (2013).
- Comment: Some pseudopotential generated using the ONCVPSP code were used.
- DOI and bibtex: see https://docs.abinit.org/theory/bibliography/#hamann2013
-
- [5] ABINIT: Overview, and focus on selected capabilities
- J. Chem. Phys. 152, 124102 (2020).
- A. Romero, D.C. Allan, B. Amadon, G. Antonius, T. Applencourt, L.Baguet,
- J.Bieder, F.Bottin, J.Bouchet, E.Bousquet, F.Bruneval,
- G.Brunin, D.Caliste, M.Cote,
- J.Denier, C. Dreyer, Ph.Ghosez, M.Giantomassi, Y.Gillet, O.Gingras,
- D.R.Hamann, G.Hautier, F.Jollet, G. Jomard,
- A.Martin, 
- H.P.C. Miranda, F.Naccarato, G.Petretto, N.A. Pike, V.Planes,
- S.Prokhorenko, T. Rangel, F.Ricci, G.-M.Rignanese, M.Royo, M.Stengel, M.Torrent,
- M.J.van Setten, B.Van Troeye, M.J.Verstraete, J.Wiktor, J.W.Zwanziger, and X.Gonze.
- Comment: a global overview of ABINIT, with focus on selected capabilities .
- Note that a version of this paper, that is not formatted for J. Chem. Phys 
- is available at https://www.abinit.org/sites/default/files/ABINIT20_JPC.pdf .
- The licence allows the authors to put it on the Web.
- DOI and bibtex: see https://docs.abinit.org/theory/bibliography/#romero2020
-
- [6] Recent developments in the ABINIT software package.
- Computer Phys. Comm. 205, 106 (2016).
- X.Gonze, F.Jollet, F.Abreu Araujo, D.Adams, B.Amadon, T.Applencourt,
- C.Audouze, J.-M.Beuken, J.Bieder, A.Bokhanchuk, E.Bousquet, F.Bruneval
- D.Caliste, M.Cote, F.Dahm, F.Da Pieve, M.Delaveau, M.Di Gennaro,
- B.Dorado, C.Espejo, G.Geneste, L.Genovese, A.Gerossier, M.Giantomassi,
- Y.Gillet, D.R.Hamann, L.He, G.Jomard, J.Laflamme Janssen, S.Le Roux,
- A.Levitt, A.Lherbier, F.Liu, I.Lukacevic, A.Martin, C.Martins,
- M.J.T.Oliveira, S.Ponce, Y.Pouillon, T.Rangel, G.-M.Rignanese,
- A.H.Romero, B.Rousseau, O.Rubel, A.A.Shukri, M.Stankovski, M.Torrent,
- M.J.Van Setten, B.Van Troeye, M.J.Verstraete, D.Waroquier, J.Wiktor,
- B.Xu, A.Zhou, J.W.Zwanziger.
- Comment: the fourth generic paper describing the ABINIT project.
- Note that a version of this paper, that is not formatted for Computer Phys. Comm. 
- is available at https://www.abinit.org/sites/default/files/ABINIT16.pdf .
- The licence allows the authors to put it on the Web.
- DOI and bibtex: see https://docs.abinit.org/theory/bibliography/#gonze2016
 Proc.   0 individual time (sec): cpu=       6200.4  wall=       6200.7

 Calculation completed.
.Delivered   8 WARNINGs and   0 COMMENTs to log file.

--- !FinalSummary
program: abinit
version: 9.2.2
start_datetime: Mon Feb 26 08:25:13 2024
end_datetime: Mon Feb 26 10:08:34 2024
overall_cpu_time:       37202.1
overall_wall_time:       37203.8
exit_requested_by_user: no 
timelimit: 0
pseudos: 
    Sn  : c918e999fc214fef37654f9ff7d5f03d
    Se  : f801923bd422df98a30264e8ccc86374
usepaw: 0
mpi_procs: 6
omp_threads: 1
num_warnings: 8
num_comments: 0
...
