
.Version 9.2.2 of ABINIT 
.(MPI version, prepared for a x86_64_linux_gnu9.3 computer) 

.Copyright (C) 1998-2020 ABINIT group . 
 ABINIT comes with ABSOLUTELY NO WARRANTY.
 It is free software, and you are welcome to redistribute it
 under certain conditions (GNU General Public License,
 see ~abinit/COPYING or http://www.gnu.org/copyleft/gpl.txt).

 ABINIT is a project of the Universite Catholique de Louvain,
 Corning Inc. and other collaborators, see ~abinit/doc/developers/contributors.txt .
 Please read https://docs.abinit.org/theory/acknowledgments for suggested
 acknowledgments of the ABINIT effort.
 For more information, see https://www.abinit.org .

.Starting date : Sun 17 Mar 2024.
- ( at 00h25 )
  
- The starting date is more than 3 years after the initial release
- of this version of ABINIT, namely Nov 2020.
- This version of ABINIT is not supported anymore.
- Action: please, switch to a more recent version of ABINIT.
- input  file    -> Cs2TiI6.in
- output file    -> Cs2TiI6.out
- root for input  files -> Cs2TiI6i
- root for output files -> Cs2TiI6o


 Symmetries : space group P4 m m (# 99); Bravais tP (primitive tetrag.)
================================================================================
 Values of the parameters that define the memory need of the present run
     intxc =       0    ionmov =       0      iscf =      17    lmnmax =       6
     lnmax =       6     mgfft =     240  mpssoang =       3    mqgrid =   11692
     natom =      16  nloc_mem =       1    nspden =       1   nspinor =       1
    nsppol =       1      nsym =       8    n1xccc =    2501    ntypat =       3
    occopt =       1   xclevel =       2
-    mband =         128        mffmem =           1         mkmem =           2
       mpw =       16864          nfft =      311040          nkpt =           6
================================================================================
P This job should need less than                     178.275 Mbytes of memory.
  Rough estimation (10% accuracy) of disk space for files :
_ WF disk file :    197.627 Mbytes ; DEN or POT disk file :      2.375 Mbytes.
================================================================================

--------------------------------------------------------------------------------
------------- Echo of variables that govern the present computation ------------
--------------------------------------------------------------------------------
-
- outvars: echo of selected default values                                      
-   iomode0 =  0 , fftalg0 =112 , wfoptalg0 =  0
-
- outvars: echo of global parameters not present in the input file              
-  max_nthreads =    0
-
 -outvars: echo values of preprocessed input variables --------
            acell      7.7624316804E+00  7.7624316804E+00  5.4752990302E+01 Bohr
              amu      1.18710000E+02  7.89600000E+01  6.53900000E+01
           diemac      1.20000000E+01
             ecut      2.25000000E+01 Hartree
-          fftalg         112
             iscf          17
              ixc          11
              kpt      8.33333333E-02  8.33333333E-02  5.00000000E-01
                       2.50000000E-01  8.33333333E-02  5.00000000E-01
                       4.16666667E-01  8.33333333E-02  5.00000000E-01
                       2.50000000E-01  2.50000000E-01  5.00000000E-01
                       4.16666667E-01  2.50000000E-01  5.00000000E-01
                       4.16666667E-01  4.16666667E-01  5.00000000E-01
         kptrlatt        6    0    0      0    6    0      0    0    1
          kptrlen      4.65745901E+01
P           mkmem           2
            natom          16
            nband         128
            ngfft          36      36     240
             nkpt           6
            nstep         150
             nsym           8
           ntypat           3
              occ      2.000000  2.000000  2.000000  2.000000  2.000000  2.000000
                       2.000000  2.000000  2.000000  2.000000  2.000000  2.000000
                       2.000000  2.000000  2.000000  2.000000  2.000000  2.000000
                       2.000000  2.000000  2.000000  2.000000  2.000000  2.000000
                       2.000000  2.000000  2.000000  2.000000  2.000000  2.000000
                       2.000000  2.000000  2.000000  2.000000  2.000000  2.000000
                       2.000000  2.000000  2.000000  2.000000  2.000000  2.000000
                       2.000000  2.000000  2.000000  2.000000  2.000000  2.000000
                       2.000000  2.000000  2.000000  2.000000  2.000000  2.000000
                       2.000000  2.000000  2.000000  2.000000  2.000000  2.000000
                       2.000000  2.000000  2.000000  2.000000  2.000000  2.000000
                       2.000000  2.000000  2.000000  2.000000  2.000000  2.000000
                       2.000000  2.000000  2.000000  2.000000  2.000000  2.000000
                       2.000000  2.000000  2.000000  2.000000  2.000000  2.000000
                       2.000000  2.000000  2.000000  2.000000  2.000000  2.000000
                       2.000000  2.000000  2.000000  2.000000  2.000000  2.000000
                       2.000000  2.000000  2.000000  2.000000  2.000000  2.000000
                       2.000000  2.000000  2.000000  2.000000  2.000000  2.000000
                       2.000000  2.000000  2.000000  2.000000  2.000000  2.000000
                       2.000000  2.000000  2.000000  2.000000  2.000000  2.000000
                       2.000000  2.000000  2.000000  2.000000  2.000000  2.000000
                       0.000000  0.000000
           prtcif           1
            prtwf           0
           shiftk      5.00000000E-01  5.00000000E-01  5.00000000E-01
          spgroup          99
           symrel      1  0  0   0  1  0   0  0  1       1  0  0   0 -1  0   0  0  1
                      -1  0  0   0 -1  0   0  0  1      -1  0  0   0  1  0   0  0  1
                       0  1  0   1  0  0   0  0  1       0  1  0  -1  0  0   0  0  1
                       0 -1  0  -1  0  0   0  0  1       0 -1  0   1  0  0   0  0  1
            tnons      0.0000000  0.0000000  0.0000000     0.0000000 -0.0000000  0.0000000
                      -0.0000000 -0.0000000  0.0000000    -0.0000000  0.0000000  0.0000000
                       0.5000000  0.5000000  0.0000000     0.5000000  0.5000000  0.0000000
                       0.5000000  0.5000000  0.0000000     0.5000000  0.5000000  0.0000000
           toldfe      1.00000000E-06 Hartree
            typat      1  1  1  1  1  1  2  2  2  2  2  2  2  2  3  3
           vdw_xc           5
              wtk        0.11111    0.22222    0.22222    0.11111    0.22222    0.11111
           xangst      2.0538509642E+00 -1.0000005802E-10  4.6664681475E+00
                      -1.0000005802E-10  2.0538509642E+00  7.4160979620E+00
                       2.0538509642E+00 -1.0000005802E-10  1.0102196638E+01
                      -1.0000005802E-10  2.0538509642E+00  1.2851826453E+01
                       2.0538509642E+00 -1.0000005802E-10  1.5537925129E+01
                      -1.0000005802E-10  2.0538509642E+00  1.8287554943E+01
                      -1.0000005802E-10  2.0538509642E+00  4.6982333557E+00
                       2.0538509642E+00 -1.0000005802E-10  7.3919861282E+00
                      -1.0000005802E-10  2.0538509642E+00  1.0144465526E+01
                       2.0538509642E+00 -1.0000005802E-10  1.2833348659E+01
                      -1.0000005802E-10  2.0538509642E+00  1.5585828057E+01
                       2.0538509642E+00 -1.0000005802E-10  1.8274711190E+01
                       2.0538509642E+00 -1.0000005802E-10  2.5980923743E+01
                      -1.0000005802E-10  2.0538509642E+00  2.8974034570E+01
                       2.0538509642E+00  2.0538509642E+00  2.7477479156E+01
                      -1.0000005802E-10 -1.0000005802E-10  2.7477479156E+01
            xcart      3.8812158400E+00 -1.8897272293E-10  8.8183468067E+00
                      -1.8897272293E-10  3.8812158400E+00  1.4014394123E+01
                       3.8812158400E+00 -1.8897272293E-10  1.9090384987E+01
                      -1.8897272293E-10  3.8812158400E+00  2.4286432303E+01
                       3.8812158400E+00 -1.8897272293E-10  2.9362423167E+01
                      -1.8897272293E-10  3.8812158400E+00  3.4558470483E+01
                      -1.8897272293E-10  3.8812158400E+00  8.8783743507E+00
                       3.8812158400E+00 -1.8897272293E-10  1.3968829360E+01
                      -1.8897272293E-10  3.8812158400E+00  1.9170261609E+01
                       3.8812158400E+00 -1.8897272293E-10  2.4251514334E+01
                      -1.8897272293E-10  3.8812158400E+00  2.9452946582E+01
                       3.8812158400E+00 -1.8897272293E-10  3.4534199307E+01
                       3.8812158400E+00 -1.8897272293E-10  4.9096830554E+01
                      -1.8897272293E-10  3.8812158400E+00  5.4752990302E+01
                       3.8812158400E+00  3.8812158400E+00  5.1924910427E+01
                      -1.8897272293E-10 -1.8897272293E-10  5.1924910427E+01
             xred      4.9999999998E-01 -2.4344526395E-11  1.6105689859E-01
                      -2.4344526395E-11  4.9999999998E-01  2.5595668922E-01
                       4.9999999998E-01 -2.4344526395E-11  3.4866378770E-01
                      -2.4344526395E-11  4.9999999998E-01  4.4356357833E-01
                       4.9999999998E-01 -2.4344526395E-11  5.3627067681E-01
                      -2.4344526395E-11  4.9999999998E-01  6.3117046744E-01
                      -2.4344526395E-11  4.9999999998E-01  1.6215323221E-01
                       4.9999999998E-01 -2.4344526395E-11  2.5512450157E-01
                      -2.4344526395E-11  4.9999999998E-01  3.5012264175E-01
                       4.9999999998E-01 -2.4344526395E-11  4.4292584204E-01
                      -2.4344526395E-11  4.9999999998E-01  5.3792398222E-01
                       4.9999999998E-01 -2.4344526395E-11  6.3072718251E-01
                       4.9999999998E-01 -2.4344526395E-11  8.9669678830E-01
                      -2.4344526395E-11  4.9999999998E-01  1.0000000000E+00
                       4.9999999998E-01  4.9999999998E-01  9.4834839414E-01
                      -2.4344526395E-11 -2.4344526395E-11  9.4834839414E-01
            znucl       50.00000   34.00000   30.00000

================================================================================

 chkinp: Checking input parameters for consistency.

================================================================================
== DATASET  1 ==================================================================
-   mpi_nproc: 4, omp_nthreads: -1 (-1 if OMP is not activated)


--- !DatasetInfo
iteration_state: {dtset: 1, }
dimensions: {natom: 16, nkpt: 6, mband: 128, nsppol: 1, nspinor: 1, nspden: 1, mpw: 16864, }
cutoff_energies: {ecut:  22.5, pawecutdg:  -1.0, }
electrons: {nelect:   2.52000000E+02, charge:   0.00000000E+00, occopt:   1.00000000E+00, tsmear:   1.00000000E-02, }
meta: {optdriver: 0, ionmov: 0, optcell: 0, iscf: 17, paral_kgb: 0, }
...

 Exchange-correlation functional for the present dataset will be:
  GGA: Perdew-Burke-Ernzerhof functional - ixc=11
 Citation for XC functional:
  J.P.Perdew, K.Burke, M.Ernzerhof, PRL 77, 3865 (1996)

 Real(R)+Recip(G) space primitive vectors, cartesian coordinates (Bohr,Bohr^-1):
 R(1)=  7.7624317  0.0000000  0.0000000  G(1)=  0.1288256  0.0000000  0.0000000
 R(2)=  0.0000000  7.7624317  0.0000000  G(2)=  0.0000000  0.1288256  0.0000000
 R(3)=  0.0000000  0.0000000 54.7529903  G(3)=  0.0000000  0.0000000  0.0182638
 Unit cell volume ucvol=  3.2991604E+03 bohr^3
 Angles (23,13,12)=  9.00000000E+01  9.00000000E+01  9.00000000E+01 degrees

 getcut: wavevector=  0.0000  0.0000  0.0000  ngfft=  36  36 240
         ecut(hartree)=     22.500   => boxcut(ratio)=   2.05280

--- Pseudopotential description ------------------------------------------------
- pspini: atom type   1  psp file is ../../../Psps_for_tests/ATOMICDATA_NC/Sn.psp8
- pspatm: opening atomic psp file    ../../../Psps_for_tests/ATOMICDATA_NC/Sn.psp8
- Sn    ONCVPSP  r_core=  2.27  2.62  1.86
- 50.00000  14.00000    150810                znucl, zion, pspdat
    8   11    2    4       600   0.00000      pspcod,pspxc,lmax,lloc,mmax,r2well
    5.99000000000000    6.50000000000000    0.00000000000000   rchrg,fchrg,qchrg
     nproj     2     2     2
     extension_switch     1
  pspatm : epsatm=   32.65190642
         --- l  ekb(1:nproj) -->
             0    5.462393    0.682281
             1    4.443814    0.825686
             2   -5.382195   -1.704077
 pspatm: atomic psp has been read  and splines computed

- pspini: atom type   2  psp file is ../../../Psps_for_tests/ATOMICDATA_NC/Se.psp8
- pspatm: opening atomic psp file    ../../../Psps_for_tests/ATOMICDATA_NC/Se.psp8
- Se    ONCVPSP  r_core=  1.82  1.50  1.91
- 34.00000  16.00000    150729                znucl, zion, pspdat
    8   11    2    4       600   0.00000      pspcod,pspxc,lmax,lloc,mmax,r2well
    5.99000000000000    5.00000000000000    0.00000000000000   rchrg,fchrg,qchrg
     nproj     2     2     2
     extension_switch     1
  pspatm : epsatm=   29.53325930
         --- l  ekb(1:nproj) -->
             0    8.612261    0.939919
             1    6.984962    1.281898
             2   -9.322521   -3.856218
 pspatm: atomic psp has been read  and splines computed

- pspini: atom type   3  psp file is ../../../Psps_for_tests/ATOMICDATA_NC/Zn.psp8
- pspatm: opening atomic psp file    ../../../Psps_for_tests/ATOMICDATA_NC/Zn.psp8
- Zn    ONCVPSP  r_core=  1.36  1.66  1.85
- 30.00000  20.00000    161102                znucl, zion, pspdat
    8   11    2    4       600   0.00000      pspcod,pspxc,lmax,lloc,mmax,r2well
    5.99000000000000    2.50000000000000    0.00000000000000   rchrg,fchrg,qchrg
     nproj     2     2     2
     extension_switch     1
  pspatm : epsatm=   26.67245340
         --- l  ekb(1:nproj) -->
             0    2.404235   -1.533451
             1   -4.677427   -1.530630
             2   -7.000316   -2.622858
 pspatm: atomic psp has been read  and splines computed

   1.22351650E+05                                ecore*ucvol(ha*bohr**3)
--------------------------------------------------------------------------------

_setup2: Arith. and geom. avg. npw (full set) are   16822.000   16821.989

================================================================================

--- !BeginCycle
iteration_state: {dtset: 1, }
solver: {iscf: 17, nstep: 150, nline: 4, wfoptalg: 0, }
tolerances: {toldfe: 1.00E-06, }
...

     iter   Etot(hartree)      deltaE(h)  residm     nres2
 ETOT  1  -1825.5629143264    -1.826E+03 7.542E-01 1.887E+03
 ETOT  2  -1977.3090748517    -1.517E+02 3.309E-01 7.362E+03
 ETOT  3  -1803.2463602551     1.741E+02 2.281E+01 2.956E+03
 ETOT  4  -1986.8818666930    -1.836E+02 2.577E+00 4.619E+03
 ETOT  5  -1860.5094600974     1.264E+02 1.781E+00 2.383E+03
 ETOT  6  -1814.2897758888     4.622E+01 1.325E+00 9.040E+02
 ETOT  7  -1849.2919084880    -3.500E+01 1.532E+00 1.679E+03
 ETOT  8  -1870.8012903544    -2.151E+01 6.595E-01 1.494E+03
 ETOT  9  -1854.1608102809     1.664E+01 1.143E+00 8.665E+02
 ETOT 10  -1895.5783830598    -4.142E+01 7.162E-01 1.838E+03
 ETOT 11  -1877.3823942448     1.820E+01 2.572E-01 1.646E+03
 ETOT 12  -1875.8488976325     1.533E+00 1.066E-01 1.816E+03
 ETOT 13  -1884.1654664309    -8.317E+00 1.896E-01 2.470E+03
 ETOT 14  -1850.8615315011     3.330E+01 1.294E+00 1.815E+02
 ETOT 15  -1856.0127603069    -5.151E+00 3.948E-01 1.836E+02
 ETOT 16  -1849.6113974036     6.401E+00 1.838E-01 2.207E+01
 ETOT 17  -1850.7450200352    -1.134E+00 8.251E-02 2.010E+01
 ETOT 18  -1850.7747999222    -2.978E-02 1.387E-01 1.503E+01
 ETOT 19  -1850.5739411755     2.009E-01 5.609E-02 3.513E+00
 ETOT 20  -1850.8848264694    -3.109E-01 1.569E-02 2.667E+00
 ETOT 21  -1850.8501645122     3.466E-02 4.828E-03 1.096E+00
 ETOT 22  -1850.8435563884     6.608E-03 3.253E-03 4.470E-01
 ETOT 23  -1850.8434087678     1.476E-04 1.065E-03 2.064E-01
 ETOT 24  -1850.8370339577     6.375E-03 4.127E-03 5.956E-02
 ETOT 25  -1850.8355056020     1.528E-03 6.379E-03 1.504E-02
 ETOT 26  -1850.8354118057     9.380E-05 1.462E-03 9.656E-03
 ETOT 27  -1850.8353742928     3.751E-05 1.812E-03 4.100E-03
 ETOT 28  -1850.8352980973     7.620E-05 6.461E-04 1.300E-03
 ETOT 29  -1850.8353384255    -4.033E-05 1.820E-03 5.824E-04
 ETOT 30  -1850.8353566118    -1.819E-05 9.246E-04 3.116E-04
 ETOT 31  -1850.8353959532    -3.934E-05 1.167E-03 1.323E-04
 ETOT 32  -1850.8354267120    -3.076E-05 6.608E-04 5.279E-05
 ETOT 33  -1850.8354423467    -1.563E-05 5.609E-04 1.545E-05
 ETOT 34  -1850.8354458025    -3.456E-06 2.733E-04 4.042E-06
 ETOT 35  -1850.8354457902     1.221E-08 1.937E-04 6.768E-07
 ETOT 36  -1850.8354456878     1.024E-07 9.335E-05 2.490E-07

 At SCF step   36, etot is converged : 
  for the second time, diff in etot=  1.024E-07 < toldfe=  1.000E-06

 Cartesian components of stress tensor (hartree/bohr^3)
  sigma(1 1)=  1.56792201E-02  sigma(3 2)=  0.00000000E+00
  sigma(2 2)=  1.56792201E-02  sigma(3 1)=  0.00000000E+00
  sigma(3 3)=  1.54891572E-02  sigma(2 1)=  0.00000000E+00


--- !ResultsGS
iteration_state: {dtset: 1, }
comment   : Summary of ground state results
lattice_vectors:
- [  7.7624317,   0.0000000,   0.0000000, ]
- [  0.0000000,   7.7624317,   0.0000000, ]
- [  0.0000000,   0.0000000,  54.7529903, ]
lattice_lengths: [   7.76243,    7.76243,   54.75299, ]
lattice_angles: [ 90.000,  90.000,  90.000, ] # degrees, (23, 13, 12)
lattice_volume:   3.2991604E+03
convergence: {deltae:  1.024E-07, res2:  2.490E-07, residm:  9.335E-05, diffor: null, }
etotal    :  -1.85083545E+03
entropy   :   0.00000000E+00
fermie    :   1.34901468E-01
cartesian_stress_tensor: # hartree/bohr^3
- [  1.56792201E-02,   0.00000000E+00,   0.00000000E+00, ]
- [  0.00000000E+00,   1.56792201E-02,   0.00000000E+00, ]
- [  0.00000000E+00,   0.00000000E+00,   1.54891572E-02, ]
pressure_GPa:  -4.5943E+02
xred      :
- [  5.0000E-01,  -2.4345E-11,   1.6106E-01, Sn]
- [ -2.4345E-11,   5.0000E-01,   2.5596E-01, Sn]
- [  5.0000E-01,  -2.4345E-11,   3.4866E-01, Sn]
- [ -2.4345E-11,   5.0000E-01,   4.4356E-01, Sn]
- [  5.0000E-01,  -2.4345E-11,   5.3627E-01, Sn]
- [ -2.4345E-11,   5.0000E-01,   6.3117E-01, Sn]
- [ -2.4345E-11,   5.0000E-01,   1.6215E-01, Se]
- [  5.0000E-01,  -2.4345E-11,   2.5512E-01, Se]
- [ -2.4345E-11,   5.0000E-01,   3.5012E-01, Se]
- [  5.0000E-01,  -2.4345E-11,   4.4293E-01, Se]
- [ -2.4345E-11,   5.0000E-01,   5.3792E-01, Se]
- [  5.0000E-01,  -2.4345E-11,   6.3073E-01, Se]
- [  5.0000E-01,  -2.4345E-11,   8.9670E-01, Se]
- [ -2.4345E-11,   5.0000E-01,   1.0000E+00, Se]
- [  5.0000E-01,   5.0000E-01,   9.4835E-01, Zn]
- [ -2.4345E-11,  -2.4345E-11,   9.4835E-01, Zn]
cartesian_forces: # hartree/bohr
- [ -0.00000000E+00,  -0.00000000E+00,  -1.47846129E-02, ]
- [ -0.00000000E+00,  -0.00000000E+00,  -1.47827454E-02, ]
- [ -0.00000000E+00,  -0.00000000E+00,   4.95503534E-03, ]
- [ -0.00000000E+00,  -0.00000000E+00,  -3.59702056E-03, ]
- [ -0.00000000E+00,  -0.00000000E+00,   1.60911193E-02, ]
- [ -0.00000000E+00,  -0.00000000E+00,   1.33529404E-02, ]
- [ -0.00000000E+00,  -0.00000000E+00,  -1.68515042E-02, ]
- [ -0.00000000E+00,  -0.00000000E+00,  -1.16626856E-02, ]
- [ -0.00000000E+00,  -0.00000000E+00,   1.42948131E-04, ]
- [ -0.00000000E+00,  -0.00000000E+00,  -6.34552090E-03, ]
- [ -0.00000000E+00,  -0.00000000E+00,   5.53841158E-03, ]
- [ -0.00000000E+00,  -0.00000000E+00,   1.15111340E-02, ]
- [ -0.00000000E+00,  -0.00000000E+00,   9.16162122E-03, ]
- [ -0.00000000E+00,  -0.00000000E+00,  -9.69432360E-03, ]
- [ -0.00000000E+00,  -0.00000000E+00,   8.48260159E-03, ]
- [ -0.00000000E+00,  -0.00000000E+00,   8.48260159E-03, ]
force_length_stats: {min:   1.42948131E-04, max:   1.68515042E-02, mean:   9.71480165E-03, }
...

 Integrated electronic density in atomic spheres:
 ------------------------------------------------
 Atom  Sphere_radius  Integrated_density
    1        2.00000         10.54954907
    2        2.00000         10.56126100
    3        2.00000         10.59056243
    4        2.00000         10.55508720
    5        2.00000         10.58700494
    6        2.00000         10.53321222
    7        2.00000         13.29124452
    8        2.00000         13.33036695
    9        2.00000         13.31649056
   10        2.00000         13.33148086
   11        2.00000         13.32461195
   12        2.00000         13.28853281
   13        2.00000         13.27664888
   14        2.00000         13.27320817
   15        2.00000         18.10247815
   16        2.00000         18.10247815
================================================================================

 ----iterations are completed or convergence reached----

 Mean square residual over all n,k,spin=   13.785E-08; max=  93.350E-06
 reduced coordinates (array xred) for   16 atoms
       0.499999999976     -0.000000000024      0.161056898591
      -0.000000000024      0.499999999976      0.255956689223
       0.499999999976     -0.000000000024      0.348663787700
      -0.000000000024      0.499999999976      0.443563578333
       0.499999999976     -0.000000000024      0.536270676809
      -0.000000000024      0.499999999976      0.631170467442
      -0.000000000024      0.499999999976      0.162153232209
       0.499999999976     -0.000000000024      0.255124501570
      -0.000000000024      0.499999999976      0.350122641754
       0.499999999976     -0.000000000024      0.442925842039
      -0.000000000024      0.499999999976      0.537923982223
       0.499999999976     -0.000000000024      0.630727182508
       0.499999999976     -0.000000000024      0.896696788299
      -0.000000000024      0.499999999976      1.000000000000
       0.499999999976      0.499999999976      0.948348394137
      -0.000000000024     -0.000000000024      0.948348394137
 rms dE/dt=  3.4306E-01; max dE/dt=  8.5117E-01; dE/dt below (all hartree)
    1       0.000000000000      0.000000000000      0.738001372641
    2       0.000000000000      0.000000000000      0.737899120960
    3       0.000000000000      0.000000000000     -0.342803397167
    4       0.000000000000      0.000000000000      0.125447236513
    5       0.000000000000      0.000000000000     -0.952537292105
    6       0.000000000000      0.000000000000     -0.802613814118
    7       0.000000000000      0.000000000000      0.851169851339
    8       0.000000000000      0.000000000000      0.567066515321
    9       0.000000000000      0.000000000000     -0.079327232924
   10       0.000000000000      0.000000000000      0.275935848758
   11       0.000000000000      0.000000000000     -0.374744990971
   12       0.000000000000      0.000000000000     -0.701769404935
   13       0.000000000000      0.000000000000     -0.573126553169
   14       0.000000000000      0.000000000000      0.459292810647
   15       0.000000000000      0.000000000000     -0.535948197683
   16       0.000000000000      0.000000000000     -0.535948197683

 cartesian coordinates (angstrom) at end:
    1      2.05385096415820    -0.00000000010000     4.66646814753657
    2     -0.00000000010000     2.05385096415820     7.41609796202207
    3      2.05385096415820    -0.00000000010000    10.10219663818585
    4     -0.00000000010000     2.05385096415820    12.85182645267135
    5      2.05385096415820    -0.00000000010000    15.53792512883510
    6     -0.00000000010000     2.05385096415820    18.28755494332064
    7     -0.00000000010000     2.05385096415820     4.69823335569745
    8      2.05385096415820    -0.00000000010000     7.39198612818800
    9     -0.00000000010000     2.05385096415820    10.14446552598321
   10      2.05385096415820    -0.00000000010000    12.83334865925724
   11     -0.00000000010000     2.05385096415820    15.58582805705242
   12      2.05385096415820    -0.00000000010000    18.27471119032648
   13      2.05385096415820    -0.00000000010000    25.98092374312457
   14     -0.00000000010000     2.05385096415820    28.97403457015915
   15      2.05385096415820     2.05385096415820    27.47747915629152
   16     -0.00000000010000    -0.00000000010000    27.47747915629152

 cartesian forces (hartree/bohr) at end:
    1     -0.00000000000000    -0.00000000000000    -0.01478461292172
    2     -0.00000000000000    -0.00000000000000    -0.01478274541310
    3     -0.00000000000000    -0.00000000000000     0.00495503533932
    4     -0.00000000000000    -0.00000000000000    -0.00359702055927
    5     -0.00000000000000    -0.00000000000000     0.01609111926041
    6     -0.00000000000000    -0.00000000000000     0.01335294044754
    7     -0.00000000000000    -0.00000000000000    -0.01685150421063
    8     -0.00000000000000    -0.00000000000000    -0.01166268558266
    9     -0.00000000000000    -0.00000000000000     0.00014294813114
   10     -0.00000000000000    -0.00000000000000    -0.00634552089531
   11     -0.00000000000000    -0.00000000000000     0.00553841158282
   12     -0.00000000000000    -0.00000000000000     0.01151113402515
   13     -0.00000000000000    -0.00000000000000     0.00916162122128
   14     -0.00000000000000    -0.00000000000000    -0.00969432359771
   15     -0.00000000000000    -0.00000000000000     0.00848260158637
   16     -0.00000000000000    -0.00000000000000     0.00848260158637
 frms,max,avg= 6.2201159E-03 1.6851504E-02   0.000E+00  0.000E+00  1.306E-03 h/b

 cartesian forces (eV/Angstrom) at end:
    1     -0.00000000000000    -0.00000000000000    -0.76025529993318
    2     -0.00000000000000    -0.00000000000000    -0.76015926878716
    3     -0.00000000000000    -0.00000000000000     0.25479814033798
    4     -0.00000000000000    -0.00000000000000    -0.18496621850261
    5     -0.00000000000000    -0.00000000000000     0.82743855144223
    6     -0.00000000000000    -0.00000000000000     0.68663574749536
    7     -0.00000000000000    -0.00000000000000    -0.86653911440288
    8     -0.00000000000000    -0.00000000000000    -0.59971935502275
    9     -0.00000000000000    -0.00000000000000     0.00735068783270
   10     -0.00000000000000    -0.00000000000000    -0.32629977646638
   11     -0.00000000000000    -0.00000000000000     0.28479655039647
   12     -0.00000000000000    -0.00000000000000     0.59192626125567
   13     -0.00000000000000    -0.00000000000000     0.47110946538407
   14     -0.00000000000000    -0.00000000000000    -0.49850212064733
   15     -0.00000000000000    -0.00000000000000     0.43619287480891
   16     -0.00000000000000    -0.00000000000000     0.43619287480891
 frms,max,avg= 3.1985119E-01 8.6653911E-01   0.000E+00  0.000E+00  6.715E-02 e/A
 length scales=  7.762431680422  7.762431680422 54.752990302362 bohr
              =  4.107701928516  4.107701928516 28.974034570159 angstroms
 prteigrs : about to open file Cs2TiI6o_EIG
 Fermi (or HOMO) energy (hartree) =   0.13490   Average Vxc (hartree)=  -0.31635
 Eigenvalues (hartree) for nkpt=   6  k points:
 kpt#   1, nband=128, wtk=  0.11111, kpt=  0.0833  0.0833  0.5000 (reduced coord)
  -4.73213   -4.73212   -2.96942   -2.96904   -2.96734   -2.96679   -2.96673   -2.96662
  -1.68139   -1.68115   -1.68058   -1.68000   -1.67923   -1.67913   -1.67900   -1.67856
  -1.67785   -1.67717   -1.67679   -1.67607   -1.67587   -1.67511   -1.67464   -1.67459
  -1.67430   -1.67395   -1.67380   -1.67325   -1.67262   -1.67201   -1.67198   -1.67155
  -1.67089   -1.67080   -1.67031   -1.66924   -1.66600   -1.66589   -1.65249   -1.65239
  -1.65066   -1.64890   -1.64859   -1.64859   -1.64810   -1.64609   -1.64452   -1.64407
  -0.67469   -0.67298   -0.67295   -0.67280   -0.67213   -0.67200   -0.67180   -0.67172
  -0.67080   -0.67077   -0.66668   -0.66547   -0.66545   -0.66501   -0.66451   -0.66432
  -0.66416   -0.66409   -0.66403   -0.66363   -0.66362   -0.66351   -0.66342   -0.66210
  -0.66210   -0.66200   -0.66057   -0.66047   -0.66024   -0.66021   -0.42581   -0.41325
  -0.40220   -0.39725   -0.37777   -0.37678   -0.35846   -0.35372   -0.19483   -0.19220
  -0.19194   -0.19121   -0.19109   -0.17966   -0.17960   -0.17762   -0.17393   -0.17234
  -0.14716   -0.14432   -0.12092   -0.11838   -0.08677   -0.07974   -0.07588   -0.05955
  -0.04282   -0.03146   -0.02789   -0.01333   -0.00980   -0.00836   -0.00236   -0.00093
   0.01085    0.01662    0.02994    0.03022    0.03235    0.03649    0.04658    0.05318
   0.05979    0.06096    0.06506    0.06900    0.09810    0.11134    0.15700    0.17210
 prteigrs : prtvol=0 or 1, do not print more k-points.


--- !EnergyTerms
iteration_state     : {dtset: 1, }
comment             : Components of total free energy in Hartree
kinetic             :  1.05990703924552E+03
hartree             :  1.44011081667837E+03
xc                  : -3.67304412365867E+02
Ewald energy        : -1.00876546673181E+02
psp_core            :  3.70856935381221E+01
local_psp           : -3.29660830175542E+03
non_local_psp       : -6.22962846089297E+02
VdWaals_dft_d       : -1.86845189493614E-01
total_energy        : -1.85083540261125E+03
...


--- !EnergyTermsDC
iteration_state     : {dtset: 1, }
comment             : '"Double-counting" decomposition of free energy'
band_energy         : -2.38633557953569E+02
Ewald energy        : -1.00876546673181E+02
psp_core            :  3.70856935381221E+01
xc_dc               : -1.54822418940968E+03
VdWaals_dft_d       : -1.86845189493614E-01
total_energy_dc     : -1.85083544568781E+03
...


 Cartesian components of stress tensor (hartree/bohr^3)
  sigma(1 1)=  1.56792201E-02  sigma(3 2)=  0.00000000E+00
  sigma(2 2)=  1.56792201E-02  sigma(3 1)=  0.00000000E+00
  sigma(3 3)=  1.54891572E-02  sigma(2 1)=  0.00000000E+00

-Cartesian components of stress tensor (GPa)         [Pressure= -4.5943E+02 GPa]
- sigma(1 1)=  4.61298503E+02  sigma(3 2)=  0.00000000E+00
- sigma(2 2)=  4.61298503E+02  sigma(3 1)=  0.00000000E+00
- sigma(3 3)=  4.55706661E+02  sigma(2 1)=  0.00000000E+00

== END DATASET(S) ==============================================================
================================================================================
  
 -outvars: echo values of variables after computation  --------
            acell      7.7624316804E+00  7.7624316804E+00  5.4752990302E+01 Bohr
              amu      1.18710000E+02  7.89600000E+01  6.53900000E+01
           diemac      1.20000000E+01
             ecut      2.25000000E+01 Hartree
           etotal     -1.8508354457E+03
            fcart     -0.0000000000E+00 -0.0000000000E+00 -1.4784612922E-02
                      -0.0000000000E+00 -0.0000000000E+00 -1.4782745413E-02
                      -0.0000000000E+00 -0.0000000000E+00  4.9550353393E-03
                      -0.0000000000E+00 -0.0000000000E+00 -3.5970205593E-03
                      -0.0000000000E+00 -0.0000000000E+00  1.6091119260E-02
                      -0.0000000000E+00 -0.0000000000E+00  1.3352940448E-02
                      -0.0000000000E+00 -0.0000000000E+00 -1.6851504211E-02
                      -0.0000000000E+00 -0.0000000000E+00 -1.1662685583E-02
                      -0.0000000000E+00 -0.0000000000E+00  1.4294813114E-04
                      -0.0000000000E+00 -0.0000000000E+00 -6.3455208953E-03
                      -0.0000000000E+00 -0.0000000000E+00  5.5384115828E-03
                      -0.0000000000E+00 -0.0000000000E+00  1.1511134025E-02
                      -0.0000000000E+00 -0.0000000000E+00  9.1616212213E-03
                      -0.0000000000E+00 -0.0000000000E+00 -9.6943235977E-03
                      -0.0000000000E+00 -0.0000000000E+00  8.4826015864E-03
                      -0.0000000000E+00 -0.0000000000E+00  8.4826015864E-03
-          fftalg         112
             iscf          17
              ixc          11
              kpt      8.33333333E-02  8.33333333E-02  5.00000000E-01
                       2.50000000E-01  8.33333333E-02  5.00000000E-01
                       4.16666667E-01  8.33333333E-02  5.00000000E-01
                       2.50000000E-01  2.50000000E-01  5.00000000E-01
                       4.16666667E-01  2.50000000E-01  5.00000000E-01
                       4.16666667E-01  4.16666667E-01  5.00000000E-01
         kptrlatt        6    0    0      0    6    0      0    0    1
          kptrlen      4.65745901E+01
P           mkmem           2
            natom          16
            nband         128
            ngfft          36      36     240
             nkpt           6
            nstep         150
             nsym           8
           ntypat           3
              occ      2.000000  2.000000  2.000000  2.000000  2.000000  2.000000
                       2.000000  2.000000  2.000000  2.000000  2.000000  2.000000
                       2.000000  2.000000  2.000000  2.000000  2.000000  2.000000
                       2.000000  2.000000  2.000000  2.000000  2.000000  2.000000
                       2.000000  2.000000  2.000000  2.000000  2.000000  2.000000
                       2.000000  2.000000  2.000000  2.000000  2.000000  2.000000
                       2.000000  2.000000  2.000000  2.000000  2.000000  2.000000
                       2.000000  2.000000  2.000000  2.000000  2.000000  2.000000
                       2.000000  2.000000  2.000000  2.000000  2.000000  2.000000
                       2.000000  2.000000  2.000000  2.000000  2.000000  2.000000
                       2.000000  2.000000  2.000000  2.000000  2.000000  2.000000
                       2.000000  2.000000  2.000000  2.000000  2.000000  2.000000
                       2.000000  2.000000  2.000000  2.000000  2.000000  2.000000
                       2.000000  2.000000  2.000000  2.000000  2.000000  2.000000
                       2.000000  2.000000  2.000000  2.000000  2.000000  2.000000
                       2.000000  2.000000  2.000000  2.000000  2.000000  2.000000
                       2.000000  2.000000  2.000000  2.000000  2.000000  2.000000
                       2.000000  2.000000  2.000000  2.000000  2.000000  2.000000
                       2.000000  2.000000  2.000000  2.000000  2.000000  2.000000
                       2.000000  2.000000  2.000000  2.000000  2.000000  2.000000
                       2.000000  2.000000  2.000000  2.000000  2.000000  2.000000
                       0.000000  0.000000
           prtcif           1
            prtwf           0
           shiftk      5.00000000E-01  5.00000000E-01  5.00000000E-01
          spgroup          99
           strten      1.5679220055E-02  1.5679220055E-02  1.5489157174E-02
                       0.0000000000E+00  0.0000000000E+00  0.0000000000E+00
           symrel      1  0  0   0  1  0   0  0  1       1  0  0   0 -1  0   0  0  1
                      -1  0  0   0 -1  0   0  0  1      -1  0  0   0  1  0   0  0  1
                       0  1  0   1  0  0   0  0  1       0  1  0  -1  0  0   0  0  1
                       0 -1  0  -1  0  0   0  0  1       0 -1  0   1  0  0   0  0  1
            tnons      0.0000000  0.0000000  0.0000000     0.0000000 -0.0000000  0.0000000
                      -0.0000000 -0.0000000  0.0000000    -0.0000000  0.0000000  0.0000000
                       0.5000000  0.5000000  0.0000000     0.5000000  0.5000000  0.0000000
                       0.5000000  0.5000000  0.0000000     0.5000000  0.5000000  0.0000000
           toldfe      1.00000000E-06 Hartree
            typat      1  1  1  1  1  1  2  2  2  2  2  2  2  2  3  3
           vdw_xc           5
              wtk        0.11111    0.22222    0.22222    0.11111    0.22222    0.11111
           xangst      2.0538509642E+00 -1.0000005802E-10  4.6664681475E+00
                      -1.0000005802E-10  2.0538509642E+00  7.4160979620E+00
                       2.0538509642E+00 -1.0000005802E-10  1.0102196638E+01
                      -1.0000005802E-10  2.0538509642E+00  1.2851826453E+01
                       2.0538509642E+00 -1.0000005802E-10  1.5537925129E+01
                      -1.0000005802E-10  2.0538509642E+00  1.8287554943E+01
                      -1.0000005802E-10  2.0538509642E+00  4.6982333557E+00
                       2.0538509642E+00 -1.0000005802E-10  7.3919861282E+00
                      -1.0000005802E-10  2.0538509642E+00  1.0144465526E+01
                       2.0538509642E+00 -1.0000005802E-10  1.2833348659E+01
                      -1.0000005802E-10  2.0538509642E+00  1.5585828057E+01
                       2.0538509642E+00 -1.0000005802E-10  1.8274711190E+01
                       2.0538509642E+00 -1.0000005802E-10  2.5980923743E+01
                      -1.0000005802E-10  2.0538509642E+00  2.8974034570E+01
                       2.0538509642E+00  2.0538509642E+00  2.7477479156E+01
                      -1.0000005802E-10 -1.0000005802E-10  2.7477479156E+01
            xcart      3.8812158400E+00 -1.8897272293E-10  8.8183468067E+00
                      -1.8897272293E-10  3.8812158400E+00  1.4014394123E+01
                       3.8812158400E+00 -1.8897272293E-10  1.9090384987E+01
                      -1.8897272293E-10  3.8812158400E+00  2.4286432303E+01
                       3.8812158400E+00 -1.8897272293E-10  2.9362423167E+01
                      -1.8897272293E-10  3.8812158400E+00  3.4558470483E+01
                      -1.8897272293E-10  3.8812158400E+00  8.8783743507E+00
                       3.8812158400E+00 -1.8897272293E-10  1.3968829360E+01
                      -1.8897272293E-10  3.8812158400E+00  1.9170261609E+01
                       3.8812158400E+00 -1.8897272293E-10  2.4251514334E+01
                      -1.8897272293E-10  3.8812158400E+00  2.9452946582E+01
                       3.8812158400E+00 -1.8897272293E-10  3.4534199307E+01
                       3.8812158400E+00 -1.8897272293E-10  4.9096830554E+01
                      -1.8897272293E-10  3.8812158400E+00  5.4752990302E+01
                       3.8812158400E+00  3.8812158400E+00  5.1924910427E+01
                      -1.8897272293E-10 -1.8897272293E-10  5.1924910427E+01
             xred      4.9999999998E-01 -2.4344526395E-11  1.6105689859E-01
                      -2.4344526395E-11  4.9999999998E-01  2.5595668922E-01
                       4.9999999998E-01 -2.4344526395E-11  3.4866378770E-01
                      -2.4344526395E-11  4.9999999998E-01  4.4356357833E-01
                       4.9999999998E-01 -2.4344526395E-11  5.3627067681E-01
                      -2.4344526395E-11  4.9999999998E-01  6.3117046744E-01
                      -2.4344526395E-11  4.9999999998E-01  1.6215323221E-01
                       4.9999999998E-01 -2.4344526395E-11  2.5512450157E-01
                      -2.4344526395E-11  4.9999999998E-01  3.5012264175E-01
                       4.9999999998E-01 -2.4344526395E-11  4.4292584204E-01
                      -2.4344526395E-11  4.9999999998E-01  5.3792398222E-01
                       4.9999999998E-01 -2.4344526395E-11  6.3072718251E-01
                       4.9999999998E-01 -2.4344526395E-11  8.9669678830E-01
                      -2.4344526395E-11  4.9999999998E-01  1.0000000000E+00
                       4.9999999998E-01  4.9999999998E-01  9.4834839414E-01
                      -2.4344526395E-11 -2.4344526395E-11  9.4834839414E-01
            znucl       50.00000   34.00000   30.00000

================================================================================


- Timing analysis has been suppressed with timopt=0



================================================================================

 Suggested references for the acknowledgment of ABINIT usage.

 The users of ABINIT have little formal obligations with respect to the ABINIT group
 (those specified in the GNU General Public License, http://www.gnu.org/copyleft/gpl.txt).
 However, it is common practice in the scientific literature,
 to acknowledge the efforts of people that have made the research possible.
 In this spirit, please find below suggested citations of work written by ABINIT developers,
 corresponding to implementations inside of ABINIT that you have used in the present run.
 Note also that it will be of great value to readers of publications presenting these results,
 to read papers enabling them to understand the theoretical formalism and details
 of the ABINIT implementation.
 For information on why they are suggested, see also https://docs.abinit.org/theory/acknowledgments.
-
- [1] The Abinit project: Impact, environment and recent developments.
- Computer Phys. Comm. 248, 107042 (2020).
- X.Gonze, B. Amadon, G. Antonius, F.Arnardi, L.Baguet, J.-M.Beuken,
- J.Bieder, F.Bottin, J.Bouchet, E.Bousquet, N.Brouwer, F.Bruneval,
- G.Brunin, T.Cavignac, J.-B. Charraud, Wei Chen, M.Cote, S.Cottenier,
- J.Denier, G.Geneste, Ph.Ghosez, M.Giantomassi, Y.Gillet, O.Gingras,
- D.R.Hamann, G.Hautier, Xu He, N.Helbig, N.Holzwarth, Y.Jia, F.Jollet,
- W.Lafargue-Dit-Hauret, K.Lejaeghere, M.A.L.Marques, A.Martin, C.Martins,
- H.P.C. Miranda, F.Naccarato, K. Persson, G.Petretto, V.Planes, Y.Pouillon,
- S.Prokhorenko, F.Ricci, G.-M.Rignanese, A.H.Romero, M.M.Schmitt, M.Torrent,
- M.J.van Setten, B.Van Troeye, M.J.Verstraete, G.Zerah and J.W.Zwanzig
- Comment: the fifth generic paper describing the ABINIT project.
- Note that a version of this paper, that is not formatted for Computer Phys. Comm. 
- is available at https://www.abinit.org/sites/default/files/ABINIT20.pdf .
- The licence allows the authors to put it on the Web.
- DOI and bibtex: see https://docs.abinit.org/theory/bibliography/#gonze2020
-
- [2] Optimized norm-conserving Vanderbilt pseudopotentials.
- D.R. Hamann, Phys. Rev. B 88, 085117 (2013).
- Comment: Some pseudopotential generated using the ONCVPSP code were used.
- DOI and bibtex: see https://docs.abinit.org/theory/bibliography/#hamann2013
-
- [3] ABINIT: Overview, and focus on selected capabilities
- J. Chem. Phys. 152, 124102 (2020).
- A. Romero, D.C. Allan, B. Amadon, G. Antonius, T. Applencourt, L.Baguet,
- J.Bieder, F.Bottin, J.Bouchet, E.Bousquet, F.Bruneval,
- G.Brunin, D.Caliste, M.Cote,
- J.Denier, C. Dreyer, Ph.Ghosez, M.Giantomassi, Y.Gillet, O.Gingras,
- D.R.Hamann, G.Hautier, F.Jollet, G. Jomard,
- A.Martin, 
- H.P.C. Miranda, F.Naccarato, G.Petretto, N.A. Pike, V.Planes,
- S.Prokhorenko, T. Rangel, F.Ricci, G.-M.Rignanese, M.Royo, M.Stengel, M.Torrent,
- M.J.van Setten, B.Van Troeye, M.J.Verstraete, J.Wiktor, J.W.Zwanziger, and X.Gonze.
- Comment: a global overview of ABINIT, with focus on selected capabilities .
- Note that a version of this paper, that is not formatted for J. Chem. Phys 
- is available at https://www.abinit.org/sites/default/files/ABINIT20_JPC.pdf .
- The licence allows the authors to put it on the Web.
- DOI and bibtex: see https://docs.abinit.org/theory/bibliography/#romero2020
-
- [4] Recent developments in the ABINIT software package.
- Computer Phys. Comm. 205, 106 (2016).
- X.Gonze, F.Jollet, F.Abreu Araujo, D.Adams, B.Amadon, T.Applencourt,
- C.Audouze, J.-M.Beuken, J.Bieder, A.Bokhanchuk, E.Bousquet, F.Bruneval
- D.Caliste, M.Cote, F.Dahm, F.Da Pieve, M.Delaveau, M.Di Gennaro,
- B.Dorado, C.Espejo, G.Geneste, L.Genovese, A.Gerossier, M.Giantomassi,
- Y.Gillet, D.R.Hamann, L.He, G.Jomard, J.Laflamme Janssen, S.Le Roux,
- A.Levitt, A.Lherbier, F.Liu, I.Lukacevic, A.Martin, C.Martins,
- M.J.T.Oliveira, S.Ponce, Y.Pouillon, T.Rangel, G.-M.Rignanese,
- A.H.Romero, B.Rousseau, O.Rubel, A.A.Shukri, M.Stankovski, M.Torrent,
- M.J.Van Setten, B.Van Troeye, M.J.Verstraete, D.Waroquier, J.Wiktor,
- B.Xu, A.Zhou, J.W.Zwanziger.
- Comment: the fourth generic paper describing the ABINIT project.
- Note that a version of this paper, that is not formatted for Computer Phys. Comm. 
- is available at https://www.abinit.org/sites/default/files/ABINIT16.pdf .
- The licence allows the authors to put it on the Web.
- DOI and bibtex: see https://docs.abinit.org/theory/bibliography/#gonze2016
-
- And optionally:
-
- [5] ABINIT: First-principles approach of materials and nanosystem properties.
- Computer Phys. Comm. 180, 2582-2615 (2009).
- X. Gonze, B. Amadon, P.-M. Anglade, J.-M. Beuken, F. Bottin, P. Boulanger, F. Bruneval,
- D. Caliste, R. Caracas, M. Cote, T. Deutsch, L. Genovese, Ph. Ghosez, M. Giantomassi
- S. Goedecker, D.R. Hamann, P. Hermet, F. Jollet, G. Jomard, S. Leroux, M. Mancini, S. Mazevet,
- M.J.T. Oliveira, G. Onida, Y. Pouillon, T. Rangel, G.-M. Rignanese, D. Sangalli, R. Shaltaf,
- M. Torrent, M.J. Verstraete, G. Zerah, J.W. Zwanziger
- Comment: the third generic paper describing the ABINIT project.
- Note that a version of this paper, that is not formatted for Computer Phys. Comm. 
- is available at https://www.abinit.org/sites/default/files/ABINIT_CPC_v10.pdf .
- The licence allows the authors to put it on the Web.
- DOI and bibtex: see https://docs.abinit.org/theory/bibliography/#gonze2009
-
- Proc.   0 individual time (sec): cpu=       1364.2  wall=       1365.7

================================================================================

 Calculation completed.
.Delivered   0 WARNINGs and   0 COMMENTs to log file.
+Overall time at end (sec) : cpu=       5457.7  wall=       5462.7
