  ABINIT 9.2.2
  
 DeprecationWarning: 

     The files file has been deprecated in Abinit9 and will be removed in Abinit10.
     Use the syntax `abinit t01.abi` where t01.abi is an input with pseudopotenials.

            pseudos = "al.psp8, as.psp8"


  Give name for formatted input file: 
Cs2TiI6.in
  Give name for formatted output file:
Cs2TiI6.out
  Give root name for generic input files:
Cs2TiI6i
  Give root name for generic output files:
Cs2TiI6o
  Give root name for generic temporary files:
Cs2TiI6

.Version 9.2.2 of ABINIT 
.(MPI version, prepared for a x86_64_linux_gnu9.3 computer) 

.Copyright (C) 1998-2020 ABINIT group . 
 ABINIT comes with ABSOLUTELY NO WARRANTY.
 It is free software, and you are welcome to redistribute it
 under certain conditions (GNU General Public License,
 see ~abinit/COPYING or http://www.gnu.org/copyleft/gpl.txt).

 ABINIT is a project of the Universite Catholique de Louvain,
 Corning Inc. and other collaborators, see ~abinit/doc/developers/contributors.txt .
 Please read https://docs.abinit.org/theory/acknowledgments for suggested
 acknowledgments of the ABINIT effort.
 For more information, see https://www.abinit.org .

.Starting date : Sun 17 Mar 2024.
- ( at 00h25 )
  
- The starting date is more than 3 years after the initial release
- of this version of ABINIT, namely Nov 2020.
- This version of ABINIT is not supported anymore.
- Action: please, switch to a more recent version of ABINIT.

 ++++++++++++++++++++++++++++++++++++++++++++++++++++++++++++++++++++++++++++++

 === Build Information === 
  Version       : 9.2.2
  Build target  : x86_64_linux_gnu9.3
  Build date    : 20210508

 === Compiler Suite === 
  C compiler       : gnu9.3
  C++ compiler     : gnu9.3
  Fortran compiler : gnu9.3
  CFLAGS           : -g -O2 -mtune=native -march=native
  CXXFLAGS         : -g -O2 -mtune=native -march=native
  FCFLAGS          : -g -ffree-line-length-none
  FC_LDFLAGS       : 

 === Optimizations === 
  Debug level        : basic
  Optimization level : standard
  Architecture       : unknown_unknown

 === Multicore === 
  Parallel build : yes
  Parallel I/O   : yes
  openMP support : 
  GPU support    : 

 === Connectors / Fallbacks === 
  LINALG flavor  : netlib
  FFT flavor     : goedecker
  HDF5           : yes
  NetCDF         : yes
  NetCDF Fortran : yes
  LibXC          : yes
  Wannier90      : no

 === Experimental features === 
  Exports             : 
  GW double-precision : 

 ++++++++++++++++++++++++++++++++++++++++++++++++++++++++++++++++++++++++++++++


 ++++++++++++++++++++++++++++++++++++++++++++++++++++++++++++++++++++++++++++++
 Default optimizations:
   -O2 -mtune=native -march=native


 Optimizations for 43_ptgroups:
   -O0


 ++++++++++++++++++++++++++++++++++++++++++++++++++++++++++++++++++++++++++++++


 ++++++++++++++++++++++++++++++++++++++++++++++++++++++++++++++++++++++++++++++
 CPP options activated during the build:

                    CC_GNU                   CXX_GNU                    FC_GNU
 
 HAVE_FC_ALLOCATABLE_DT...             HAVE_FC_ASYNC         HAVE_FC_BACKTRACE
 
  HAVE_FC_COMMAND_ARGUMENT      HAVE_FC_COMMAND_LINE        HAVE_FC_CONTIGUOUS
 
           HAVE_FC_CPUTIME              HAVE_FC_EXIT             HAVE_FC_FLUSH
 
             HAVE_FC_GAMMA            HAVE_FC_GETENV   HAVE_FC_IEEE_ARITHMETIC
 
   HAVE_FC_IEEE_EXCEPTIONS          HAVE_FC_INT_QUAD             HAVE_FC_IOMSG
 
     HAVE_FC_ISO_C_BINDING  HAVE_FC_ISO_FORTRAN_2008        HAVE_FC_LONG_LINES
 
        HAVE_FC_MOVE_ALLOC  HAVE_FC_ON_THE_FLY_SHAPE           HAVE_FC_PRIVATE
 
         HAVE_FC_PROTECTED           HAVE_FC_SHIFTLR         HAVE_FC_STREAM_IO
 
            HAVE_FC_SYSTEM          HAVE_FORTRAN2003                 HAVE_HDF5
 
        HAVE_LIBPAW_ABINIT      HAVE_LIBTETRA_ABINIT                HAVE_LIBXC
 
                  HAVE_MPI                 HAVE_MPI2       HAVE_MPI_IALLGATHER
 
       HAVE_MPI_IALLREDUCE        HAVE_MPI_IALLTOALL       HAVE_MPI_IALLTOALLV
 
           HAVE_MPI_IBCAST         HAVE_MPI_IGATHERV        HAVE_MPI_INTEGER16
 
               HAVE_MPI_IO HAVE_MPI_TYPE_CREATE_S...               HAVE_NETCDF
 
       HAVE_NETCDF_FORTRAN             HAVE_OS_LINUX         HAVE_TIMER_ABINIT
 
                  HAVE_XML                                                      
 ++++++++++++++++++++++++++++++++++++++++++++++++++++++++++++++++++++++++++++++

- input  file    -> Cs2TiI6.in
- output file    -> Cs2TiI6.out
- root for input  files -> Cs2TiI6i
- root for output files -> Cs2TiI6o

-instrng: 51 lines of input have been read from file Cs2TiI6.in


 Please give name of formatted atomic psp file (and finish with a newline character)
 For atom type 1, psp file is ../../../Psps_for_tests/ATOMICDATA_NC/Sn.psp8

 Please give name of formatted atomic psp file (and finish with a newline character)
 For atom type 2, psp file is ../../../Psps_for_tests/ATOMICDATA_NC/Se.psp8

 Please give name of formatted atomic psp file (and finish with a newline character)
 For atom type 3, psp file is ../../../Psps_for_tests/ATOMICDATA_NC/Zn.psp8
  read the values zionpsp= 14.0 , pspcod=   8 , lmax=   2
  read the values zionpsp= 16.0 , pspcod=   8 , lmax=   2
  read the values zionpsp= 20.0 , pspcod=   8 , lmax=   2

 inpspheads: deduce mpsang = 3, n1xccc = 2501.

======================================================= 
 invars1m : enter jdtset= 0

 symlatt: the Bravais lattice is tP (primitive tetragonal)
  xred   is defined in input file
 ingeo: takes atomic coordinates from input array xred

--- !WARNING
src_file: m_ingeo.F90
src_line: 887
message: |
    The tolerance on symmetries =   1.000E-05 is bigger than 1.0e-8.
    In order to avoid spurious effects, the atomic coordinates have been
    symmetrized before storing them in the dataset internal variable.
    So, do not be surprised by the fact that your input variables (xcart, xred, ...)
    do not correspond to the ones echoed by ABINIT, the latter being used to do the calculations.
    In order to avoid this symmetrization (e.g. for specific debugging/development), decrease tolsym to 1.0e-8 or lower.
...


 symlatt: the Bravais lattice is tP (primitive tetragonal)

 symlatt: the Bravais lattice is tP (primitive tetragonal)
 symspgr: spgroup=  99  P4 m m   (=C4v^1)
 symspgr: optical characteristics = uniaxial
 Optical axis (in reduced coordinates, real space ) :   0   0   1
 invars2: take the default value of fband=  1.25000000E-01

--- !WARNING
src_file: m_mpinfo.F90
src_line: 2281
message: |
    nkpt*nsppol (6) is not a multiple of nproc_kpt (4)
    The k-point parallelisation is inefficient. (Ignore this warning if this is not a GS run)
...

 For input ecut=  2.250000E+01 best grid ngfft=      36      36     240
       max ecut=  2.370372E+01

 ==== FFT mesh ====
  FFT mesh divisions ........................    36   36  240
  Augmented FFT divisions ...................    37   37  240
  FFT algorithm .............................   112
  FFT cache size ............................    16
 getmpw: optimal value of mpw= 16864

 Symmetries : space group P4 m m (# 99); Bravais tP (primitive tetrag.)

 getdim_nloc : deduce lmnmax  =  18, lnmax  =   6,
                      lmnmaxso=  18, lnmaxso=   6.
memory: analysis of memory needs
================================================================================
 Values of the parameters that define the memory need of the present run
     intxc =       0    ionmov =       0      iscf =      17    lmnmax =       6
     lnmax =       6     mgfft =     240  mpssoang =       3    mqgrid =   11692
     natom =      16  nloc_mem =       1    nspden =       1   nspinor =       1
    nsppol =       1      nsym =       8    n1xccc =    2501    ntypat =       3
    occopt =       1   xclevel =       2
-    mband =         128        mffmem =           1         mkmem =           2
       mpw =       16864          nfft =      311040          nkpt =           6
================================================================================
P This job should need less than                     178.275 Mbytes of memory.
  Rough estimation (10% accuracy) of disk space for files :
_ WF disk file :    197.627 Mbytes ; DEN or POT disk file :      2.375 Mbytes.
================================================================================

 Biggest array : cg(disk), with     65.8770 MBytes.
 memana : allocated an array of     65.877 Mbytes, for testing purposes.
 memana: allocated     178.275Mbytes, for testing purposes. 
 The job will continue.
--------------------------------------------------------------------------------
------------- Echo of variables that govern the present computation ------------
--------------------------------------------------------------------------------
-
- outvars: echo of selected default values                                      
-   iomode0 =  0 , fftalg0 =112 , wfoptalg0 =  0
-
- outvars: echo of global parameters not present in the input file              
-  max_nthreads =    0
-
 -outvars: echo values of preprocessed input variables --------
 
 These variables are accessible in NetCDF format (Cs2TiI6o_OUT.nc)

            acell      7.7624316804E+00  7.7624316804E+00  5.4752990302E+01 Bohr
              amu      1.18710000E+02  7.89600000E+01  6.53900000E+01
           diemac      1.20000000E+01
             ecut      2.25000000E+01 Hartree
-          fftalg         112
             iscf          17
              ixc          11
              kpt      8.33333333E-02  8.33333333E-02  5.00000000E-01
                       2.50000000E-01  8.33333333E-02  5.00000000E-01
                       4.16666667E-01  8.33333333E-02  5.00000000E-01
                       2.50000000E-01  2.50000000E-01  5.00000000E-01
                       4.16666667E-01  2.50000000E-01  5.00000000E-01
                       4.16666667E-01  4.16666667E-01  5.00000000E-01
         kptrlatt        6    0    0      0    6    0      0    0    1
          kptrlen      4.65745901E+01
P           mkmem           2
            natom          16
            nband         128
            ngfft          36      36     240
             nkpt           6
            nstep         150
             nsym           8
           ntypat           3
              occ      2.000000  2.000000  2.000000  2.000000  2.000000  2.000000
                       2.000000  2.000000  2.000000  2.000000  2.000000  2.000000
                       2.000000  2.000000  2.000000  2.000000  2.000000  2.000000
                       2.000000  2.000000  2.000000  2.000000  2.000000  2.000000
                       2.000000  2.000000  2.000000  2.000000  2.000000  2.000000
                       2.000000  2.000000  2.000000  2.000000  2.000000  2.000000
                       2.000000  2.000000  2.000000  2.000000  2.000000  2.000000
                       2.000000  2.000000  2.000000  2.000000  2.000000  2.000000
                       2.000000  2.000000  2.000000  2.000000  2.000000  2.000000
                       2.000000  2.000000  2.000000  2.000000  2.000000  2.000000
                       2.000000  2.000000  2.000000  2.000000  2.000000  2.000000
                       2.000000  2.000000  2.000000  2.000000  2.000000  2.000000
                       2.000000  2.000000  2.000000  2.000000  2.000000  2.000000
                       2.000000  2.000000  2.000000  2.000000  2.000000  2.000000
                       2.000000  2.000000  2.000000  2.000000  2.000000  2.000000
                       2.000000  2.000000  2.000000  2.000000  2.000000  2.000000
                       2.000000  2.000000  2.000000  2.000000  2.000000  2.000000
                       2.000000  2.000000  2.000000  2.000000  2.000000  2.000000
                       2.000000  2.000000  2.000000  2.000000  2.000000  2.000000
                       2.000000  2.000000  2.000000  2.000000  2.000000  2.000000
                       2.000000  2.000000  2.000000  2.000000  2.000000  2.000000
                       0.000000  0.000000
           prtcif           1
            prtwf           0
           shiftk      5.00000000E-01  5.00000000E-01  5.00000000E-01
          spgroup          99
           symrel      1  0  0   0  1  0   0  0  1       1  0  0   0 -1  0   0  0  1
                      -1  0  0   0 -1  0   0  0  1      -1  0  0   0  1  0   0  0  1
                       0  1  0   1  0  0   0  0  1       0  1  0  -1  0  0   0  0  1
                       0 -1  0  -1  0  0   0  0  1       0 -1  0   1  0  0   0  0  1
            tnons      0.0000000  0.0000000  0.0000000     0.0000000 -0.0000000  0.0000000
                      -0.0000000 -0.0000000  0.0000000    -0.0000000  0.0000000  0.0000000
                       0.5000000  0.5000000  0.0000000     0.5000000  0.5000000  0.0000000
                       0.5000000  0.5000000  0.0000000     0.5000000  0.5000000  0.0000000
           toldfe      1.00000000E-06 Hartree
            typat      1  1  1  1  1  1  2  2  2  2  2  2  2  2  3  3
           vdw_xc           5
              wtk        0.11111    0.22222    0.22222    0.11111    0.22222    0.11111
           xangst      2.0538509642E+00 -1.0000005802E-10  4.6664681475E+00
                      -1.0000005802E-10  2.0538509642E+00  7.4160979620E+00
                       2.0538509642E+00 -1.0000005802E-10  1.0102196638E+01
                      -1.0000005802E-10  2.0538509642E+00  1.2851826453E+01
                       2.0538509642E+00 -1.0000005802E-10  1.5537925129E+01
                      -1.0000005802E-10  2.0538509642E+00  1.8287554943E+01
                      -1.0000005802E-10  2.0538509642E+00  4.6982333557E+00
                       2.0538509642E+00 -1.0000005802E-10  7.3919861282E+00
                      -1.0000005802E-10  2.0538509642E+00  1.0144465526E+01
                       2.0538509642E+00 -1.0000005802E-10  1.2833348659E+01
                      -1.0000005802E-10  2.0538509642E+00  1.5585828057E+01
                       2.0538509642E+00 -1.0000005802E-10  1.8274711190E+01
                       2.0538509642E+00 -1.0000005802E-10  2.5980923743E+01
                      -1.0000005802E-10  2.0538509642E+00  2.8974034570E+01
                       2.0538509642E+00  2.0538509642E+00  2.7477479156E+01
                      -1.0000005802E-10 -1.0000005802E-10  2.7477479156E+01
            xcart      3.8812158400E+00 -1.8897272293E-10  8.8183468067E+00
                      -1.8897272293E-10  3.8812158400E+00  1.4014394123E+01
                       3.8812158400E+00 -1.8897272293E-10  1.9090384987E+01
                      -1.8897272293E-10  3.8812158400E+00  2.4286432303E+01
                       3.8812158400E+00 -1.8897272293E-10  2.9362423167E+01
                      -1.8897272293E-10  3.8812158400E+00  3.4558470483E+01
                      -1.8897272293E-10  3.8812158400E+00  8.8783743507E+00
                       3.8812158400E+00 -1.8897272293E-10  1.3968829360E+01
                      -1.8897272293E-10  3.8812158400E+00  1.9170261609E+01
                       3.8812158400E+00 -1.8897272293E-10  2.4251514334E+01
                      -1.8897272293E-10  3.8812158400E+00  2.9452946582E+01
                       3.8812158400E+00 -1.8897272293E-10  3.4534199307E+01
                       3.8812158400E+00 -1.8897272293E-10  4.9096830554E+01
                      -1.8897272293E-10  3.8812158400E+00  5.4752990302E+01
                       3.8812158400E+00  3.8812158400E+00  5.1924910427E+01
                      -1.8897272293E-10 -1.8897272293E-10  5.1924910427E+01
             xred      4.9999999998E-01 -2.4344526395E-11  1.6105689859E-01
                      -2.4344526395E-11  4.9999999998E-01  2.5595668922E-01
                       4.9999999998E-01 -2.4344526395E-11  3.4866378770E-01
                      -2.4344526395E-11  4.9999999998E-01  4.4356357833E-01
                       4.9999999998E-01 -2.4344526395E-11  5.3627067681E-01
                      -2.4344526395E-11  4.9999999998E-01  6.3117046744E-01
                      -2.4344526395E-11  4.9999999998E-01  1.6215323221E-01
                       4.9999999998E-01 -2.4344526395E-11  2.5512450157E-01
                      -2.4344526395E-11  4.9999999998E-01  3.5012264175E-01
                       4.9999999998E-01 -2.4344526395E-11  4.4292584204E-01
                      -2.4344526395E-11  4.9999999998E-01  5.3792398222E-01
                       4.9999999998E-01 -2.4344526395E-11  6.3072718251E-01
                       4.9999999998E-01 -2.4344526395E-11  8.9669678830E-01
                      -2.4344526395E-11  4.9999999998E-01  1.0000000000E+00
                       4.9999999998E-01  4.9999999998E-01  9.4834839414E-01
                      -2.4344526395E-11 -2.4344526395E-11  9.4834839414E-01
            znucl       50.00000   34.00000   30.00000

================================================================================

 chkinp: Checking input parameters for consistency.
 DATA TYPE INFORMATION: 
 REAL:      Data type name: REAL(DP) 
            Kind value:      8
            Precision:      15
            Smallest nonnegligible quantity relative to 1: 0.22204460E-015
            Smallest positive number:                      0.22250739E-307
            Largest representable number:                  0.17976931E+309
 INTEGER:   Data type name: INTEGER(default) 
            Kind value: 4
            Bit size:   32
            Largest representable number: 2147483647
 LOGICAL:   Data type name: LOGICAL 
            Kind value: 4
 CHARACTER: Data type name: CHARACTER             Kind value: 1

  ==== OpenMP parallelism is OFF ====
 
  ==== Using MPI-2 specifications ==== 
  MPI-IO support is ON
  xmpi_tag_ub ................   2147483647
  xmpi_bsize_ch ..............            1
  xmpi_bsize_int .............            4
  xmpi_bsize_sp ..............            4
  xmpi_bsize_dp ..............            8
  xmpi_bsize_spc .............            8
  xmpi_bsize_dpc .............           16
  xmpio_bsize_frm ............            4
  xmpi_address_kind ..........            8
  xmpi_offset_kind ...........            8
  MPI_WTICK ..................    1.0000000000000001E-009

================================================================================
== DATASET  1 ==================================================================
-   mpi_nproc: 4, omp_nthreads: -1 (-1 if OMP is not activated)


--- !COMMENT
src_file: m_xgScalapack.F90
src_line: 236
message: |
    xgScalapack in auto mode
...


 getdim_nloc : deduce lmnmax  =  18, lnmax  =   6,
                      lmnmaxso=  18, lnmaxso=   6.
 Exchange-correlation functional for the present dataset will be:
  GGA: Perdew-Burke-Ernzerhof functional - ixc=11
 Citation for XC functional:
  J.P.Perdew, K.Burke, M.Ernzerhof, PRL 77, 3865 (1996)

 Unit cell volume ucvol=  3.2991604E+03 bohr^3
 Angles (23,13,12)=  9.00000000E+01  9.00000000E+01  9.00000000E+01 degrees

 getcut: wavevector=  0.0000  0.0000  0.0000  ngfft=  36  36 240
         ecut(hartree)=     22.500   => boxcut(ratio)=   2.05280
- pspini: atom type   1  psp file is ../../../Psps_for_tests/ATOMICDATA_NC/Sn.psp8
- pspatm: opening atomic psp file    ../../../Psps_for_tests/ATOMICDATA_NC/Sn.psp8
- Sn    ONCVPSP  r_core=  2.27  2.62  1.86
- 50.00000  14.00000    150810                znucl, zion, pspdat
    8   11    2    4       600   0.00000      pspcod,pspxc,lmax,lloc,mmax,r2well
    5.99000000000000    6.50000000000000    0.00000000000000   rchrg,fchrg,qchrg
     nproj     2     2     2
     extension_switch     1
  valence charge integrates to:    13.912521222389802     
  pspatm : epsatm=   32.65190642
         --- l  ekb(1:nproj) -->
             0    5.462393    0.682281
             1    4.443814    0.825686
             2   -5.382195   -1.704077
 pspatm: atomic psp has been read  and splines computed

- pspini: atom type   2  psp file is ../../../Psps_for_tests/ATOMICDATA_NC/Se.psp8
- pspatm: opening atomic psp file    ../../../Psps_for_tests/ATOMICDATA_NC/Se.psp8
- Se    ONCVPSP  r_core=  1.82  1.50  1.91
- 34.00000  16.00000    150729                znucl, zion, pspdat
    8   11    2    4       600   0.00000      pspcod,pspxc,lmax,lloc,mmax,r2well
    5.99000000000000    5.00000000000000    0.00000000000000   rchrg,fchrg,qchrg
     nproj     2     2     2
     extension_switch     1
  valence charge integrates to:    15.981819523532332     
  pspatm : epsatm=   29.53325930
         --- l  ekb(1:nproj) -->
             0    8.612261    0.939919
             1    6.984962    1.281898
             2   -9.322521   -3.856218
 pspatm: atomic psp has been read  and splines computed

- pspini: atom type   3  psp file is ../../../Psps_for_tests/ATOMICDATA_NC/Zn.psp8
- pspatm: opening atomic psp file    ../../../Psps_for_tests/ATOMICDATA_NC/Zn.psp8
- Zn    ONCVPSP  r_core=  1.36  1.66  1.85
- 30.00000  20.00000    161102                znucl, zion, pspdat
    8   11    2    4       600   0.00000      pspcod,pspxc,lmax,lloc,mmax,r2well
    5.99000000000000    2.50000000000000    0.00000000000000   rchrg,fchrg,qchrg
     nproj     2     2     2
     extension_switch     1
  valence charge integrates to:    19.977025053306086     
  pspatm : epsatm=   26.67245340
         --- l  ekb(1:nproj) -->
             0    2.404235   -1.533451
             1   -4.677427   -1.530630
             2   -7.000316   -2.622858
 pspatm: atomic psp has been read  and splines computed

   1.22351650E+05                                ecore*ucvol(ha*bohr**3)
 ==== Info on pseudopotentials ====
  Norm-conserving pseudopotentials
  Number of pseudopotentials ..    3
  Number of types of atoms   ..    3
  Scalar calculation (no spin-orbit term)
  Nonlocal part applied using Legendre polynomials
  Max number of non-local projectors over l and type   2
  Highest angular momentum +1 .......   3
  Max number of (l,n)   components ..   6
  Max number of (l,m,n) components ..   6

 Pseudo-Core Charge Info: 
   Number of radial points for pseudo-core charge .. 2501
   XC core-correction treatment (optnlxccc) ........    1
   Radius for pseudo-core charge for each type ..... 

  - Atom type    1 has pseudo-core radius ..  5.9900
  - Atom type    2 has pseudo-core radius ..  5.9900
  - Atom type    3 has pseudo-core radius ..  5.9900

 Info on the Q-grid used for form factors in spline form: 
   Number of q-points for radial functions ffspl ..  11692
   Number of q-points for vlspl ...................  11692
   vloc is computed in Reciprocal Space
   model core charge treated in real-space

  XC functional for type 1 is 11
  Pseudo valence available: yes
  XC functional for type 2 is 11
  Pseudo valence available: yes
  XC functional for type 3 is 11
  Pseudo valence available: yes

 wfconv:   128 bands initialized randomly with npw= 16864, for ikpt=     1
 wfconv:   128 bands initialized randomly with npw= 16808, for ikpt=     2
_setup2: Arith. and geom. avg. npw (full set) are   16822.000   16821.989
 initro: for itypat=  1, take pseudo charge density from pp file
 initro: for itypat=  2, take pseudo charge density from pp file
 initro: for itypat=  3, take pseudo charge density from pp file

================================================================================

 getcut: wavevector=  0.0000  0.0000  0.0000  ngfft=  36  36 240
         ecut(hartree)=     22.500   => boxcut(ratio)=   2.05280

 1/G**2 cut-off applied in the following step : cutoff-mode = CRYSTAL

  --------------------------------------------------------------
  Van der Waals DFT-D2 semi-empirical dispersion potential added
      with following parameters:
      Specie  C6 (J.nm^6.mol^-1)  R0 (Ang)
      ------------------------------------
         Sn           38.71         1.804
         Se           12.64         1.771
         Zn           10.80         1.562

      Scaling factor   =   0.75
      Damping parameter=  20.00
      Cut-off radius   = 130.92 bohr

      Number of pairs contributing =   388936
      DFT-D2 energy contribution   =   -1.86845E-01 Ha
  --------------------------------------------------------------


 1/G**2 cut-off applied in the following step : cutoff-mode = CRYSTAL

 1/G**2 cut-off applied in the following step : cutoff-mode = CRYSTAL

--- !WARNING
src_file: m_drivexc.F90
src_line: 707
message: |
    Density went too small (lower than xc_denpos) at 9111 points
    and was set to xc_denpos =   1.00E-14. Lowest was  -0.85E-03.
    Likely due to too low boxcut or too low ecut for pseudopotential core charge.
...


 ITER STEP NUMBER     1
 vtorho: nnsclo_now = 2, note that nnsclo, dbl_nnsclo, istep= 0 0 1
 Total charge density [el/Bohr^3]
      Maximum=    3.2682E+00  at reduced coord.    0.0000    0.9722    0.9417
      Minimum=    2.9851E-03  at reduced coord.    0.0000    0.5000    0.7833
   Integrated=    2.5200E+02
 ETOT  1  -1825.5629143264    -1.826E+03 7.542E-01 1.887E+03
 scprqt: <Vxc>= -3.2247918E-01 hartree

 Simple mixing update:
  residual square of the potential:    1241.3710122129260

 1/G**2 cut-off applied in the following step : cutoff-mode = CRYSTAL

--- !WARNING
src_file: m_drivexc.F90
src_line: 707
message: |
    Density went too small (lower than xc_denpos) at 6220 points
    and was set to xc_denpos =   1.00E-14. Lowest was  -0.80E-04.
    Likely due to too low boxcut or too low ecut for pseudopotential core charge.
...

 scfcv_core: previous iteration took 01:10 [minutes]

 ITER STEP NUMBER     2
 vtorho: nnsclo_now = 2, note that nnsclo, dbl_nnsclo, istep= 0 0 2
 Total charge density [el/Bohr^3]
      Maximum=    5.9782E+00  at reduced coord.    0.5278    0.5278    0.9417
      Minimum=    3.3044E-04  at reduced coord.    0.0278    0.0278    0.4750
   Integrated=    2.5200E+02
 ETOT  2  -1977.3090748517    -1.517E+02 3.309E-01 7.362E+03
 scprqt: <Vxc>= -3.3884412E-01 hartree

 Pulay update with  1 previous iterations:
 mixing of old trial potential: alpha(m:m-4)=  0.368      0.632

--- !WARNING
src_file: m_drivexc.F90
src_line: 707
message: |
    Density went too small (lower than xc_denpos) at 21139 points
    and was set to xc_denpos =   1.00E-14. Lowest was  -0.10E-02.
    Likely due to too low boxcut or too low ecut for pseudopotential core charge.
...

 scfcv_core: previous iteration took 01:10 [minutes]

 ITER STEP NUMBER     3
 vtorho: nnsclo_now = 1, note that nnsclo, dbl_nnsclo, istep= 0 0 3
 Total charge density [el/Bohr^3]
      Maximum=    3.5797E+00  at reduced coord.    0.5000    0.5000    0.9583
      Minimum=    1.7001E-03  at reduced coord.    0.5000    0.0000    0.7583
   Integrated=    2.5200E+02
 ETOT  3  -1803.2463602551     1.741E+02 2.281E+01 2.956E+03
 scprqt: <Vxc>= -3.3914845E-01 hartree

 Pulay update with  2 previous iterations:
 mixing of old trial potential: alpha(m:m-4)=  0.159      0.338      0.502

--- !WARNING
src_file: m_drivexc.F90
src_line: 707
message: |
    Density went too small (lower than xc_denpos) at 19658 points
    and was set to xc_denpos =   1.00E-14. Lowest was  -0.95E-03.
    Likely due to too low boxcut or too low ecut for pseudopotential core charge.
...

 scfcv_core: previous iteration took 34.22 [s]

 ITER STEP NUMBER     4
 vtorho: nnsclo_now = 1, note that nnsclo, dbl_nnsclo, istep= 0 0 4
 Total charge density [el/Bohr^3]
      Maximum=    3.3681E+00  at reduced coord.    0.5000    0.5000    0.9417
      Minimum=    1.5541E-04  at reduced coord.    0.5000    0.0000    0.7667
   Integrated=    2.5200E+02
 ETOT  4  -1986.8818666930    -1.836E+02 2.577E+00 4.619E+03
 scprqt: <Vxc>= -3.4550126E-01 hartree

 Pulay update with  3 previous iterations:
 mixing of old trial potential: alpha(m:m-4)=  0.403     -0.221      0.391      0.428

--- !WARNING
src_file: m_drivexc.F90
src_line: 707
message: |
    Density went too small (lower than xc_denpos) at 16194 points
    and was set to xc_denpos =   1.00E-14. Lowest was  -0.90E-03.
    Likely due to too low boxcut or too low ecut for pseudopotential core charge.
...

 scfcv_core: previous iteration took 35.34 [s]

 ITER STEP NUMBER     5
 vtorho: nnsclo_now = 1, note that nnsclo, dbl_nnsclo, istep= 0 0 5
 Total charge density [el/Bohr^3]
      Maximum=    3.4355E+00  at reduced coord.    0.5000    0.5278    0.9542
      Minimum=    5.3525E-05  at reduced coord.    0.5000    0.0000    0.7708
   Integrated=    2.5200E+02
 ETOT  5  -1860.5094600974     1.264E+02 1.781E+00 2.383E+03
 scprqt: <Vxc>= -3.4966928E-01 hartree

 Pulay update with  4 previous iterations:
 mixing of old trial potential: alpha(m:m-4)=  0.614     -0.497E-01 -0.168      0.340      0.263

--- !WARNING
src_file: m_drivexc.F90
src_line: 707
message: |
    Density went too small (lower than xc_denpos) at 12453 points
    and was set to xc_denpos =   1.00E-14. Lowest was  -0.65E-03.
    Likely due to too low boxcut or too low ecut for pseudopotential core charge.
...

 scfcv_core: previous iteration took 36.58 [s]

 ITER STEP NUMBER     6
 vtorho: nnsclo_now = 1, note that nnsclo, dbl_nnsclo, istep= 0 0 6
 Total charge density [el/Bohr^3]
      Maximum=    3.8173E+00  at reduced coord.    0.5000    0.5278    0.9417
      Minimum=    1.4553E-04  at reduced coord.    0.0833    0.0000    0.7708
   Integrated=    2.5200E+02
 ETOT  6  -1814.2897758888     4.622E+01 1.325E+00 9.040E+02
 scprqt: <Vxc>= -3.4895717E-01 hartree

 Pulay update with  5 previous iterations:
 mixing of old trial potential: alpha(m:m-4)=  0.302      0.482     -0.200E-01 -0.165      0.254

--- !WARNING
src_file: m_drivexc.F90
src_line: 707
message: |
    Density went too small (lower than xc_denpos) at 9105 points
    and was set to xc_denpos =   1.00E-14. Lowest was  -0.37E-03.
    Likely due to too low boxcut or too low ecut for pseudopotential core charge.
...

 scfcv_core: previous iteration took 35.24 [s]

 ITER STEP NUMBER     7
 vtorho: nnsclo_now = 1, note that nnsclo, dbl_nnsclo, istep= 0 0 7
 Total charge density [el/Bohr^3]
      Maximum=    4.8238E+00  at reduced coord.    0.5000    0.5000    0.9583
      Minimum=    1.1391E-04  at reduced coord.    0.2500    0.0556    0.7792
   Integrated=    2.5200E+02
 ETOT  7  -1849.2919084880    -3.500E+01 1.532E+00 1.679E+03
 scprqt: <Vxc>= -3.4903416E-01 hartree

 Pulay update with  6 previous iterations:
 mixing of old trial potential: alpha(m:m-4)=  0.165      0.220      0.395      0.332E-01 -0.154

--- !WARNING
src_file: m_drivexc.F90
src_line: 707
message: |
    Density went too small (lower than xc_denpos) at 4433 points
    and was set to xc_denpos =   1.00E-14. Lowest was  -0.19E-03.
    Likely due to too low boxcut or too low ecut for pseudopotential core charge.
...

 scfcv_core: previous iteration took 35.67 [s]

 ITER STEP NUMBER     8
 vtorho: nnsclo_now = 1, note that nnsclo, dbl_nnsclo, istep= 0 0 8
 Total charge density [el/Bohr^3]
      Maximum=    4.9738E+00  at reduced coord.    0.0000    0.9444    0.9542
      Minimum=    8.5824E-05  at reduced coord.    0.0000    0.4444    0.7792
   Integrated=    2.5200E+02
 ETOT  8  -1870.8012903544    -2.151E+01 6.595E-01 1.494E+03
 scprqt: <Vxc>= -3.4927618E-01 hartree

 Pulay update with  7 previous iterations:
 mixing of old trial potential: alpha(m:m-4)=  0.272     -0.237E-01  0.165      0.317      0.254E-01

--- !WARNING
src_file: m_drivexc.F90
src_line: 707
message: |
    Density went too small (lower than xc_denpos) at 4705 points
    and was set to xc_denpos =   1.00E-14. Lowest was  -0.17E-03.
    Likely due to too low boxcut or too low ecut for pseudopotential core charge.
...

 scfcv_core: previous iteration took 36.51 [s]

 ITER STEP NUMBER     9
 vtorho: nnsclo_now = 1, note that nnsclo, dbl_nnsclo, istep= 0 0 9
 Total charge density [el/Bohr^3]
      Maximum=    4.7122E+00  at reduced coord.    0.0000    0.9444    0.9542
      Minimum=    6.4539E-05  at reduced coord.    0.0000    0.5000    0.7750
   Integrated=    2.5200E+02
 ETOT  9  -1854.1608102809     1.664E+01 1.143E+00 8.665E+02
 scprqt: <Vxc>= -3.4642226E-01 hartree

 Pulay update with  7 previous iterations:
 mixing of old trial potential: alpha(m:m-4)= -0.290      0.297      0.726E-01  0.340      0.614

--- !WARNING
src_file: m_drivexc.F90
src_line: 707
message: |
    Density went too small (lower than xc_denpos) at 3880 points
    and was set to xc_denpos =   1.00E-14. Lowest was  -0.20E-03.
    Likely due to too low boxcut or too low ecut for pseudopotential core charge.
...

 scfcv_core: previous iteration took 37.88 [s]

 ITER STEP NUMBER    10
 vtorho: nnsclo_now = 1, note that nnsclo, dbl_nnsclo, istep= 0 0 10
 Total charge density [el/Bohr^3]
      Maximum=    4.9505E+00  at reduced coord.    0.5278    0.5556    0.9458
      Minimum=    5.1602E-05  at reduced coord.    0.0556    0.4444    0.7750
   Integrated=    2.5200E+02
 ETOT 10  -1895.5783830598    -4.142E+01 7.162E-01 1.838E+03
 scprqt: <Vxc>= -3.5161007E-01 hartree

 Pulay update with  7 previous iterations:
 mixing of old trial potential: alpha(m:m-4)=  0.196     -0.587      0.654      0.198E-01  0.275
 scfcv_core: previous iteration took 35.47 [s]

 ITER STEP NUMBER    11
 vtorho: nnsclo_now = 1, note that nnsclo, dbl_nnsclo, istep= 0 0 11
 Total charge density [el/Bohr^3]
      Maximum=    4.9880E+00  at reduced coord.    0.5278    0.5556    0.9458
      Minimum=    4.4995E-05  at reduced coord.    0.0000    0.5000    0.7625
   Integrated=    2.5200E+02
 ETOT 11  -1877.3823942448     1.820E+01 2.572E-01 1.646E+03
 scprqt: <Vxc>= -3.5051630E-01 hartree

 Pulay update with  7 previous iterations:
 mixing of old trial potential: alpha(m:m-4)=   1.44     -0.653      -1.23      0.417      0.291
 scfcv_core: previous iteration took 34.52 [s]

 ITER STEP NUMBER    12
 vtorho: nnsclo_now = 1, note that nnsclo, dbl_nnsclo, istep= 0 0 12
 Total charge density [el/Bohr^3]
      Maximum=    4.9325E+00  at reduced coord.    0.5278    0.5556    0.9458
      Minimum=    2.2348E-05  at reduced coord.    0.0000    0.5000    0.7625
   Integrated=    2.5200E+02
 ETOT 12  -1875.8488976325     1.533E+00 1.066E-01 1.816E+03
 scprqt: <Vxc>= -3.5054041E-01 hartree

 Pulay update with  7 previous iterations:
 mixing of old trial potential: alpha(m:m-4)=  0.798       1.40     -0.943      -2.00      0.461
 scfcv_core: previous iteration took 33.47 [s]

 ITER STEP NUMBER    13
 vtorho: nnsclo_now = 1, note that nnsclo, dbl_nnsclo, istep= 0 0 13
 Total charge density [el/Bohr^3]
      Maximum=    5.0279E+00  at reduced coord.    0.5278    0.5556    0.9458
      Minimum=    2.5470E-05  at reduced coord.    0.0000    0.5000    0.7625
   Integrated=    2.5200E+02
 ETOT 13  -1884.1654664309    -8.317E+00 1.896E-01 2.470E+03
 scprqt: <Vxc>= -3.5494081E-01 hartree

 Pulay update with  7 previous iterations:
 mixing of old trial potential: alpha(m:m-4)=  -1.37      0.727      0.781     -0.782       1.02

--- !WARNING
src_file: m_drivexc.F90
src_line: 707
message: |
    Density went too small (lower than xc_denpos) at 4535 points
    and was set to xc_denpos =   1.00E-14. Lowest was  -0.18E-03.
    Likely due to too low boxcut or too low ecut for pseudopotential core charge.
...

 scfcv_core: previous iteration took 32.54 [s]

 ITER STEP NUMBER    14
 vtorho: nnsclo_now = 1, note that nnsclo, dbl_nnsclo, istep= 0 0 14
 Total charge density [el/Bohr^3]
      Maximum=    4.2895E+00  at reduced coord.    0.5556    0.5000    0.9542
      Minimum=    4.7979E-05  at reduced coord.    0.3889    0.0000    0.7542
   Integrated=    2.5200E+02
 ETOT 14  -1850.8615315011     3.330E+01 1.294E+00 1.815E+02
 scprqt: <Vxc>= -3.3226207E-01 hartree

 Pulay update with  7 previous iterations:
 mixing of old trial potential: alpha(m:m-4)=  0.783     -0.803      0.786      0.420     -0.806
 scfcv_core: previous iteration took 35.69 [s]

 ITER STEP NUMBER    15
 vtorho: nnsclo_now = 1, note that nnsclo, dbl_nnsclo, istep= 0 0 15
 Total charge density [el/Bohr^3]
      Maximum=    3.9529E+00  at reduced coord.    0.5000    0.4444    0.9542
      Minimum=    9.1264E-05  at reduced coord.    0.5000    0.0000    0.7667
   Integrated=    2.5200E+02
 ETOT 15  -1856.0127603069    -5.151E+00 3.948E-01 1.836E+02
 scprqt: <Vxc>= -3.2949585E-01 hartree

 Pulay update with  7 previous iterations:
 mixing of old trial potential: alpha(m:m-4)=  0.506      0.240     -0.451      0.527      0.194
 scfcv_core: previous iteration took 38.69 [s]

 ITER STEP NUMBER    16
 vtorho: nnsclo_now = 1, note that nnsclo, dbl_nnsclo, istep= 0 0 16
 Total charge density [el/Bohr^3]
      Maximum=    4.0354E+00  at reduced coord.    0.5000    0.5000    0.9583
      Minimum=    4.2528E-05  at reduced coord.    0.4444    0.0000    0.7625
   Integrated=    2.5200E+02
 ETOT 16  -1849.6113974036     6.401E+00 1.838E-01 2.207E+01
 scprqt: <Vxc>= -3.2986155E-01 hartree

 Pulay update with  7 previous iterations:
 mixing of old trial potential: alpha(m:m-4)=  0.726      0.104      0.114E-01 -0.743E-01 -0.364E-01
 scfcv_core: previous iteration took 36.86 [s]

 ITER STEP NUMBER    17
 vtorho: nnsclo_now = 1, note that nnsclo, dbl_nnsclo, istep= 0 0 17
 Total charge density [el/Bohr^3]
      Maximum=    4.1492E+00  at reduced coord.    0.0000    0.9444    0.9542
      Minimum=    4.8459E-05  at reduced coord.    0.5000    0.0000    0.7708
   Integrated=    2.5200E+02
 ETOT 17  -1850.7450200352    -1.134E+00 8.251E-02 2.010E+01
 scprqt: <Vxc>= -3.3103305E-01 hartree

 Pulay update with  7 previous iterations:
 mixing of old trial potential: alpha(m:m-4)=  0.633      0.439     -0.464E-01 -0.226E-01  0.731E-02
 scfcv_core: previous iteration took 35.34 [s]

 ITER STEP NUMBER    18
 vtorho: nnsclo_now = 1, note that nnsclo, dbl_nnsclo, istep= 0 0 18
 Total charge density [el/Bohr^3]
      Maximum=    4.0678E+00  at reduced coord.    0.5000    0.5000    0.9583
      Minimum=    4.2159E-05  at reduced coord.    0.0000    0.3611    0.7750
   Integrated=    2.5200E+02
 ETOT 18  -1850.7747999222    -2.978E-02 1.387E-01 1.503E+01
 scprqt: <Vxc>= -3.2812659E-01 hartree

 Pulay update with  7 previous iterations:
 mixing of old trial potential: alpha(m:m-4)=  0.454      0.332      0.247     -0.105E-01 -0.377E-01
 scfcv_core: previous iteration took 34.55 [s]

 ITER STEP NUMBER    19
 vtorho: nnsclo_now = 1, note that nnsclo, dbl_nnsclo, istep= 0 0 19
 Total charge density [el/Bohr^3]
      Maximum=    4.1068E+00  at reduced coord.    0.0000    0.9444    0.9542
      Minimum=    3.6507E-05  at reduced coord.    0.0000    0.5000    0.7750
   Integrated=    2.5200E+02
 ETOT 19  -1850.5739411755     2.009E-01 5.609E-02 3.513E+00
 scprqt: <Vxc>= -3.2861780E-01 hartree

 Pulay update with  7 previous iterations:
 mixing of old trial potential: alpha(m:m-4)=  0.429      0.307      0.148      0.119      0.703E-02
 scfcv_core: previous iteration took 34.70 [s]

 ITER STEP NUMBER    20
 vtorho: nnsclo_now = 1, note that nnsclo, dbl_nnsclo, istep= 0 0 20
 Total charge density [el/Bohr^3]
      Maximum=    4.1142E+00  at reduced coord.    0.0000    0.9444    0.9542
      Minimum=    2.0415E-05  at reduced coord.    0.0000    0.3611    0.7750
   Integrated=    2.5200E+02
 ETOT 20  -1850.8848264694    -3.109E-01 1.569E-02 2.667E+00
 scprqt: <Vxc>= -3.2736059E-01 hartree

 Pulay update with  7 previous iterations:
 mixing of old trial potential: alpha(m:m-4)=  0.601     -0.236E-01  0.260      0.603E-01  0.106
 scfcv_core: previous iteration took 36.13 [s]

 ITER STEP NUMBER    21
 vtorho: nnsclo_now = 1, note that nnsclo, dbl_nnsclo, istep= 0 0 21
 Total charge density [el/Bohr^3]
      Maximum=    4.1078E+00  at reduced coord.    0.0000    0.9444    0.9542
      Minimum=    1.4023E-05  at reduced coord.    0.0000    0.4444    0.7792
   Integrated=    2.5200E+02
 ETOT 21  -1850.8501645122     3.466E-02 4.828E-03 1.096E+00
 scprqt: <Vxc>= -3.2607075E-01 hartree

 Pulay update with  7 previous iterations:
 mixing of old trial potential: alpha(m:m-4)=  0.761      0.157     -0.170      0.165      0.566E-02
 scfcv_core: previous iteration took 41.51 [s]

 ITER STEP NUMBER    22
 vtorho: nnsclo_now = 1, note that nnsclo, dbl_nnsclo, istep= 0 0 22
 Total charge density [el/Bohr^3]
      Maximum=    4.1003E+00  at reduced coord.    0.0000    0.9444    0.9542
      Minimum=    1.4888E-05  at reduced coord.    0.0000    0.4444    0.7792
   Integrated=    2.5200E+02
 ETOT 22  -1850.8435563884     6.608E-03 3.253E-03 4.470E-01
 scprqt: <Vxc>= -3.2451865E-01 hartree

 Pulay update with  7 previous iterations:
 mixing of old trial potential: alpha(m:m-4)=  0.709      0.286      0.180     -0.310      0.938E-01
 scfcv_core: previous iteration took 33.91 [s]

 ITER STEP NUMBER    23
 vtorho: nnsclo_now = 1, note that nnsclo, dbl_nnsclo, istep= 0 0 23
 Total charge density [el/Bohr^3]
      Maximum=    4.1065E+00  at reduced coord.    0.0000    0.9444    0.9542
      Minimum=    1.5135E-05  at reduced coord.    0.0000    0.4444    0.7792
   Integrated=    2.5200E+02
 ETOT 23  -1850.8434087678     1.476E-04 1.065E-03 2.064E-01
 scprqt: <Vxc>= -3.2276798E-01 hartree

 Pulay update with  7 previous iterations:
 mixing of old trial potential: alpha(m:m-4)=  0.781      0.132      0.723E-01  0.177     -0.244
 scfcv_core: previous iteration took 35.77 [s]

 ITER STEP NUMBER    24
 vtorho: nnsclo_now = 1, note that nnsclo, dbl_nnsclo, istep= 0 0 24
 Total charge density [el/Bohr^3]
      Maximum=    4.1011E+00  at reduced coord.    0.0000    0.9444    0.9542
      Minimum=    1.5657E-05  at reduced coord.    0.0000    0.4444    0.7792
   Integrated=    2.5200E+02
 ETOT 24  -1850.8370339577     6.375E-03 4.127E-03 5.956E-02
 scprqt: <Vxc>= -3.2163165E-01 hartree

 Pulay update with  7 previous iterations:
 mixing of old trial potential: alpha(m:m-4)=  0.912      0.292     -0.187     -0.714E-01  0.170
 scfcv_core: previous iteration took 35.44 [s]

 ITER STEP NUMBER    25
 vtorho: nnsclo_now = 1, note that nnsclo, dbl_nnsclo, istep= 0 0 25
 Total charge density [el/Bohr^3]
      Maximum=    4.1017E+00  at reduced coord.    0.0000    0.9444    0.9542
      Minimum=    1.6778E-05  at reduced coord.    0.0000    0.4444    0.7792
   Integrated=    2.5200E+02
 ETOT 25  -1850.8355056020     1.528E-03 6.379E-03 1.504E-02
 scprqt: <Vxc>= -3.2002483E-01 hartree

 Pulay update with  7 previous iterations:
 mixing of old trial potential: alpha(m:m-4)=  0.850      0.708E-01  0.116     -0.527E-01 -0.546E-01
 scfcv_core: previous iteration took 35.64 [s]

 ITER STEP NUMBER    26
 vtorho: nnsclo_now = 1, note that nnsclo, dbl_nnsclo, istep= 0 0 26
 Total charge density [el/Bohr^3]
      Maximum=    4.1019E+00  at reduced coord.    0.0000    0.9444    0.9542
      Minimum=    1.6986E-05  at reduced coord.    0.0000    0.4444    0.7792
   Integrated=    2.5200E+02
 ETOT 26  -1850.8354118057     9.380E-05 1.462E-03 9.656E-03
 scprqt: <Vxc>= -3.1949160E-01 hartree

 Pulay update with  7 previous iterations:
 mixing of old trial potential: alpha(m:m-4)=  0.974      0.608E-01 -0.998E-01  0.106     -0.366E-01
 scfcv_core: previous iteration took 34.19 [s]

 ITER STEP NUMBER    27
 vtorho: nnsclo_now = 1, note that nnsclo, dbl_nnsclo, istep= 0 0 27
 Total charge density [el/Bohr^3]
      Maximum=    4.1019E+00  at reduced coord.    0.0000    0.9444    0.9542
      Minimum=    1.7238E-05  at reduced coord.    0.0000    0.4444    0.7792
   Integrated=    2.5200E+02
 ETOT 27  -1850.8353742928     3.751E-05 1.812E-03 4.100E-03
 scprqt: <Vxc>= -3.1884027E-01 hartree

 Pulay update with  7 previous iterations:
 mixing of old trial potential: alpha(m:m-4)=   1.14     -0.221E-01 -0.217      0.842E-01  0.696E-01
 scfcv_core: previous iteration took 34.75 [s]

 ITER STEP NUMBER    28
 vtorho: nnsclo_now = 1, note that nnsclo, dbl_nnsclo, istep= 0 0 28
 Total charge density [el/Bohr^3]
      Maximum=    4.1021E+00  at reduced coord.    0.0000    0.9444    0.9542
      Minimum=    1.7335E-05  at reduced coord.    0.0000    0.4444    0.7792
   Integrated=    2.5200E+02
 ETOT 28  -1850.8352980973     7.620E-05 6.461E-04 1.300E-03
 scprqt: <Vxc>= -3.1824765E-01 hartree

 Pulay update with  7 previous iterations:
 mixing of old trial potential: alpha(m:m-4)=   1.11      0.232E-01 -0.169     -0.245E-01  0.835E-01
 scfcv_core: previous iteration took 34.11 [s]

 ITER STEP NUMBER    29
 vtorho: nnsclo_now = 1, note that nnsclo, dbl_nnsclo, istep= 0 0 29
 Total charge density [el/Bohr^3]
      Maximum=    4.1022E+00  at reduced coord.    0.0000    0.9444    0.9542
      Minimum=    1.7334E-05  at reduced coord.    0.0000    0.4444    0.7792
   Integrated=    2.5200E+02
 ETOT 29  -1850.8353384255    -4.033E-05 1.820E-03 5.824E-04
 scprqt: <Vxc>= -3.1771737E-01 hartree

 Pulay update with  7 previous iterations:
 mixing of old trial potential: alpha(m:m-4)=  0.784      0.211     -0.215E-01  0.315E-01 -0.202E-01
 scfcv_core: previous iteration took 36.79 [s]

 ITER STEP NUMBER    30
 vtorho: nnsclo_now = 1, note that nnsclo, dbl_nnsclo, istep= 0 0 30
 Total charge density [el/Bohr^3]
      Maximum=    4.1023E+00  at reduced coord.    0.0000    0.9444    0.9542
      Minimum=    1.7289E-05  at reduced coord.    0.0000    0.4444    0.7792
   Integrated=    2.5200E+02
 ETOT 30  -1850.8353566118    -1.819E-05 9.246E-04 3.116E-04
 scprqt: <Vxc>= -3.1749290E-01 hartree

 Pulay update with  7 previous iterations:
 mixing of old trial potential: alpha(m:m-4)=   1.05      0.703E-01 -0.131      0.651E-01 -0.633E-01
 scfcv_core: previous iteration took 34.50 [s]

 ITER STEP NUMBER    31
 vtorho: nnsclo_now = 1, note that nnsclo, dbl_nnsclo, istep= 0 0 31
 Total charge density [el/Bohr^3]
      Maximum=    4.1023E+00  at reduced coord.    0.0000    0.9444    0.9542
      Minimum=    1.7203E-05  at reduced coord.    0.0000    0.4444    0.7792
   Integrated=    2.5200E+02
 ETOT 31  -1850.8353959532    -3.934E-05 1.167E-03 1.323E-04
 scprqt: <Vxc>= -3.1712983E-01 hartree

 Pulay update with  7 previous iterations:
 mixing of old trial potential: alpha(m:m-4)=   1.29     -0.221     -0.107      0.643E-01 -0.125E-03
 scfcv_core: previous iteration took 34.29 [s]

 ITER STEP NUMBER    32
 vtorho: nnsclo_now = 1, note that nnsclo, dbl_nnsclo, istep= 0 0 32
 Total charge density [el/Bohr^3]
      Maximum=    4.1022E+00  at reduced coord.    0.0000    0.9444    0.9542
      Minimum=    1.7039E-05  at reduced coord.    0.0000    0.4444    0.7792
   Integrated=    2.5200E+02
 ETOT 32  -1850.8354267120    -3.076E-05 6.608E-04 5.279E-05
 scprqt: <Vxc>= -3.1681464E-01 hartree

 Pulay update with  7 previous iterations:
 mixing of old trial potential: alpha(m:m-4)=   1.05      0.243     -0.271     -0.572E-01  0.946E-01
 scfcv_core: previous iteration took 35.52 [s]

 ITER STEP NUMBER    33
 vtorho: nnsclo_now = 1, note that nnsclo, dbl_nnsclo, istep= 0 0 33
 Total charge density [el/Bohr^3]
      Maximum=    4.1023E+00  at reduced coord.    0.0000    0.9444    0.9542
      Minimum=    1.6880E-05  at reduced coord.    0.0000    0.4444    0.7792
   Integrated=    2.5200E+02
 ETOT 33  -1850.8354423467    -1.563E-05 5.609E-04 1.545E-05
 scprqt: <Vxc>= -3.1655316E-01 hartree

 Pulay update with  7 previous iterations:
 mixing of old trial potential: alpha(m:m-4)=   1.09      0.207     -0.244     -0.546E-01 -0.246E-01
 scfcv_core: previous iteration took 39.67 [s]

 ITER STEP NUMBER    34
 vtorho: nnsclo_now = 1, note that nnsclo, dbl_nnsclo, istep= 0 0 34
 Total charge density [el/Bohr^3]
      Maximum=    4.1023E+00  at reduced coord.    0.0000    0.9444    0.9542
      Minimum=    1.6801E-05  at reduced coord.    0.0000    0.4444    0.7792
   Integrated=    2.5200E+02
 ETOT 34  -1850.8354458025    -3.456E-06 2.733E-04 4.042E-06
 scprqt: <Vxc>= -3.1640829E-01 hartree

 Pulay update with  7 previous iterations:
 mixing of old trial potential: alpha(m:m-4)=  0.824      0.441     -0.116     -0.171      0.251E-01
 scfcv_core: previous iteration took 35.87 [s]

 ITER STEP NUMBER    35
 vtorho: nnsclo_now = 1, note that nnsclo, dbl_nnsclo, istep= 0 0 35
 Total charge density [el/Bohr^3]
      Maximum=    4.1023E+00  at reduced coord.    0.0000    0.9444    0.9542
      Minimum=    1.6822E-05  at reduced coord.    0.0000    0.4444    0.7792
   Integrated=    2.5200E+02
 ETOT 35  -1850.8354457902     1.221E-08 1.937E-04 6.768E-07
 scprqt: <Vxc>= -3.1635874E-01 hartree

 Pulay update with  7 previous iterations:
 mixing of old trial potential: alpha(m:m-4)=   1.21     -0.699E-01 -0.161     -0.115E-01  0.128E-01
 scfcv_core: previous iteration took 35.06 [s]

 ITER STEP NUMBER    36
 vtorho: nnsclo_now = 1, note that nnsclo, dbl_nnsclo, istep= 0 0 36
 Total charge density [el/Bohr^3]
      Maximum=    4.1023E+00  at reduced coord.    0.0000    0.9444    0.9542
      Minimum=    1.6828E-05  at reduced coord.    0.0000    0.4444    0.7792
   Integrated=    2.5200E+02
 ETOT 36  -1850.8354456878     1.024E-07 9.335E-05 2.490E-07
 scprqt: <Vxc>= -3.1634750E-01 hartree

 At SCF step   36, etot is converged : 
  for the second time, diff in etot=  1.024E-07 < toldfe=  1.000E-06

 Cartesian components of stress tensor (hartree/bohr^3)
  sigma(1 1)=  1.56792201E-02  sigma(3 2)=  0.00000000E+00
  sigma(2 2)=  1.56792201E-02  sigma(3 1)=  0.00000000E+00
  sigma(3 3)=  1.54891572E-02  sigma(2 1)=  0.00000000E+00


   fftdatar_write: About to write data to: Cs2TiI6o_DEN with iomode: IO_MODE_FORTRAN
 IO operation completed. cpu:  0.00 [s] , wall:  0.00 [s] <<< TIME
- Creating netcdf file WITHOUT MPI-IO support: Cs2TiI6o_GSR.nc
 Integrated electronic density in atomic spheres:
 ------------------------------------------------
 Atom  Sphere_radius  Integrated_density
    1        2.00000         10.54954907
    2        2.00000         10.56126100
    3        2.00000         10.59056243
    4        2.00000         10.55508720
    5        2.00000         10.58700494
    6        2.00000         10.53321222
    7        2.00000         13.29124452
    8        2.00000         13.33036695
    9        2.00000         13.31649056
   10        2.00000         13.33148086
   11        2.00000         13.32461195
   12        2.00000         13.28853281
   13        2.00000         13.27664888
   14        2.00000         13.27320817
   15        2.00000         18.10247815
   16        2.00000         18.10247815
================================================================================

 ----iterations are completed or convergence reached----


 === Gap info ===
  >>>> For spin  1
   Minimum direct gap =   0.4479 [eV], located at k-point      :   0.4167  0.0833  0.5000
   Fundamental gap    =   0.4479 [eV], Top of valence bands at :   0.4167  0.0833  0.5000
                                       Bottom of conduction at :   0.4167  0.0833  0.5000
 Mean square residual over all n,k,spin=   13.785E-08; max=  93.350E-06
   0.0833  0.0833  0.5000    1  1.43237E-07 kpt; spin; max resid(k); each band:
   1.69E-12  1.69E-12  1.36E-12  1.36E-12  3.38E-12  1.37E-12  1.36E-12  3.33E-12
   5.62E-09  5.78E-09  5.24E-09  2.22E-09  4.15E-09  3.60E-09  3.72E-09  3.78E-09
   5.99E-09  4.93E-09  4.72E-09  1.19E-09  3.64E-09  4.37E-09  3.18E-09  3.10E-09
   4.02E-09  8.75E-10  3.93E-09  2.44E-09  5.29E-09  6.90E-10  5.55E-09  5.60E-09
   4.10E-09  1.30E-09  5.17E-09  5.97E-10  1.92E-10  8.78E-10  1.46E-10  9.01E-11
   2.88E-10  1.24E-10  1.14E-10  9.16E-11  1.33E-10  1.42E-10  2.08E-11  4.90E-11
   9.63E-12  9.39E-12  1.28E-12  1.11E-11  7.53E-12  4.92E-12  7.00E-12  8.92E-12
   3.85E-12  4.20E-12  6.34E-12  4.91E-13  7.30E-13  9.47E-12  2.70E-11  3.54E-12
   1.55E-11  1.01E-11  3.89E-12  3.63E-11  3.29E-12  7.50E-12  3.39E-11  3.78E-12
   1.42E-11  1.90E-11  1.01E-12  5.90E-13  2.75E-12  2.93E-12  2.66E-11  2.99E-11
   1.23E-10  3.35E-11  1.73E-10  2.81E-10  2.49E-11  2.13E-11  4.50E-12  3.80E-11
   4.75E-12  2.45E-11  6.76E-12  1.05E-11  3.67E-12  3.63E-12  5.56E-13  4.23E-13
   2.17E-11  2.46E-11  2.57E-11  3.82E-11  2.89E-11  7.88E-10  1.01E-09  3.62E-11
   2.11E-11  8.78E-11  2.50E-11  8.71E-11  4.00E-11  2.22E-10  1.10E-10  7.75E-11
   3.24E-11  7.04E-11  2.35E-11  4.43E-11  2.68E-11  2.10E-11  3.19E-09  3.71E-09
   5.03E-10  9.10E-11  1.83E-10  1.71E-10  3.84E-11  3.04E-10  4.82E-11  1.43E-07
   0.2500  0.0833  0.5000    1  4.92815E-07 kpt; spin; max resid(k); each band:
   1.68E-12  1.69E-12  1.36E-12  1.37E-12  1.36E-12  3.33E-12  3.33E-12  1.36E-12
   4.94E-09  5.46E-09  5.63E-09  4.67E-09  5.64E-09  4.92E-09  3.98E-09  5.08E-09
   4.82E-09  6.24E-09  5.53E-09  2.86E-09  5.43E-09  5.59E-09  5.53E-09  3.73E-09
   4.86E-09  3.13E-09  3.87E-09  8.16E-10  1.31E-09  5.18E-09  3.84E-09  2.68E-09
   1.26E-09  1.25E-09  5.99E-10  7.57E-10  2.81E-10  4.38E-10  1.47E-10  6.65E-11
   1.60E-10  1.05E-10  8.49E-11  3.04E-10  9.38E-12  1.16E-10  5.59E-11  6.60E-11
   7.36E-12  9.86E-12  5.98E-12  3.92E-12  2.78E-12  8.13E-12  8.73E-12  2.87E-12
   1.92E-12  2.70E-12  6.10E-12  4.52E-12  4.83E-12  3.46E-12  3.71E-11  1.47E-11
   3.41E-11  7.41E-12  5.59E-12  7.63E-12  6.09E-12  5.39E-12  7.00E-12  6.65E-12
   3.58E-12  1.19E-11  1.33E-12  1.68E-12  1.09E-12  8.79E-13  2.73E-11  2.98E-11
   1.22E-10  3.04E-11  1.65E-10  6.89E-11  1.19E-11  1.05E-11  4.48E-12  6.99E-12
   9.41E-12  1.88E-11  1.63E-11  5.76E-12  1.18E-12  1.00E-11  1.86E-11  7.59E-12
   2.22E-11  2.42E-11  3.71E-11  2.15E-11  2.85E-11  2.92E-11  3.00E-10  1.44E-10
   1.30E-10  3.50E-11  3.16E-11  5.96E-11  6.12E-11  1.45E-10  3.63E-11  3.59E-11
   3.61E-10  8.31E-10  9.81E-11  1.26E-10  1.15E-09  1.98E-10  1.21E-09  2.55E-09
   1.67E-10  1.15E-10  5.59E-11  8.96E-11  4.25E-11  3.11E-10  1.42E-08  4.93E-07
   0.4167  0.0833  0.5000    1  5.77447E-09 kpt; spin; max resid(k); each band:
   1.69E-12  1.68E-12  1.36E-12  1.36E-12  1.36E-12  3.31E-12  3.32E-12  1.36E-12
   4.66E-09  5.58E-09  4.76E-09  4.79E-09  5.42E-09  2.29E-09  4.10E-09  4.79E-09
   3.94E-09  5.73E-09  5.77E-09  5.06E-09  4.68E-09  5.55E-09  5.21E-09  3.41E-09
   5.32E-09  5.39E-09  2.52E-09  5.32E-09  5.54E-09  2.98E-09  4.13E-09  2.23E-09
   1.17E-09  2.05E-09  9.26E-10  8.22E-10  3.11E-10  2.07E-10  7.75E-11  2.04E-10
   6.84E-11  4.77E-11  1.55E-10  1.38E-10  4.27E-11  7.11E-11  1.10E-10  3.99E-11
   1.99E-12  7.58E-12  9.88E-12  3.34E-12  1.04E-11  8.79E-12  8.80E-12  1.82E-12
   1.58E-12  2.66E-12  3.79E-12  1.70E-12  5.40E-12  3.41E-12  1.18E-11  9.43E-12
   8.32E-12  4.57E-12  2.56E-11  1.55E-11  3.36E-11  3.34E-11  9.14E-12  3.93E-12
   7.19E-12  7.82E-12  1.05E-12  1.39E-12  1.66E-12  5.02E-13  2.82E-11  3.05E-11
   1.22E-10  2.34E-11  3.19E-11  1.33E-10  4.10E-12  6.55E-12  2.55E-11  8.22E-12
   2.25E-11  8.71E-12  6.45E-12  3.32E-12  2.12E-11  5.81E-12  7.32E-12  2.22E-12
   4.81E-12  1.84E-11  2.97E-11  2.53E-11  2.65E-11  2.68E-11  1.49E-10  1.37E-10
   3.53E-11  3.29E-11  4.32E-11  4.82E-11  5.08E-11  1.42E-10  1.80E-10  4.39E-10
   5.03E-09  5.21E-09  5.11E-09  5.63E-09  1.44E-09  1.69E-09  1.88E-09  9.36E-11
   2.52E-11  3.12E-11  8.43E-11  8.14E-11  2.38E-10  2.73E-10  4.42E-10  1.11E-09
   0.2500  0.2500  0.5000    1  4.24111E-08 kpt; spin; max resid(k); each band:
   1.69E-12  1.69E-12  1.36E-12  1.34E-12  1.37E-12  3.33E-12  3.30E-12  1.36E-12
   1.81E-09  5.37E-09  6.41E-10  4.76E-09  5.57E-09  5.87E-09  5.16E-09  1.61E-09
   4.28E-09  5.63E-09  2.74E-09  5.19E-09  2.17E-09  2.96E-09  3.54E-09  4.71E-09
   4.30E-09  4.37E-09  3.20E-09  4.21E-09  3.31E-09  7.22E-10  1.87E-09  1.20E-09
   6.67E-10  1.55E-09  1.52E-09  5.86E-10  7.12E-10  5.71E-10  1.56E-10  1.01E-10
   4.52E-11  1.03E-10  2.94E-10  1.74E-10  1.38E-11  5.11E-11  3.48E-11  1.05E-10
   6.64E-12  3.77E-12  7.25E-12  5.87E-12  1.40E-12  2.69E-12  4.26E-12  1.06E-12
   1.47E-12  3.09E-12  4.05E-12  4.41E-12  6.13E-12  1.58E-12  6.78E-12  2.32E-11
   4.29E-12  2.01E-11  6.49E-12  1.99E-11  1.03E-11  3.07E-12  4.34E-12  2.53E-12
   3.47E-12  6.11E-12  1.94E-12  1.64E-12  1.10E-12  4.34E-13  2.78E-11  2.99E-11
   1.20E-10  2.83E-11  1.34E-10  3.66E-11  6.69E-12  7.29E-12  5.03E-12  1.82E-11
   6.02E-12  5.48E-12  4.63E-12  3.39E-12  1.80E-12  3.19E-12  4.36E-12  3.33E-11
   2.22E-11  2.22E-11  2.98E-11  2.57E-11  2.70E-11  2.83E-11  1.81E-10  2.00E-11
   2.78E-11  4.98E-11  6.80E-11  2.62E-11  2.02E-10  3.11E-11  1.25E-10  3.17E-11
   2.70E-11  2.40E-11  1.76E-10  9.23E-11  1.69E-09  1.93E-09  1.44E-09  2.26E-09
   8.08E-11  5.25E-11  4.16E-11  6.62E-11  3.66E-11  1.23E-10  1.07E-09  4.24E-08
   0.4167  0.2500  0.5000    1  9.33501E-05 kpt; spin; max resid(k); each band:
   1.69E-12  1.69E-12  1.34E-12  1.33E-12  1.37E-12  3.29E-12  1.38E-12  3.34E-12
   5.09E-09  4.01E-09  2.63E-09  3.59E-09  4.03E-09  5.35E-09  5.33E-09  5.99E-09
   4.50E-09  4.51E-09  6.21E-09  3.37E-09  6.00E-09  5.44E-09  5.71E-09  5.18E-09
   5.45E-09  4.85E-09  5.42E-09  4.18E-09  1.60E-09  3.73E-09  8.55E-10  4.27E-09
   2.30E-09  5.97E-10  1.07E-09  1.65E-09  1.52E-09  4.99E-10  8.27E-11  9.08E-11
   1.28E-10  7.50E-11  1.44E-10  7.46E-11  1.64E-11  2.87E-11  5.60E-11  2.70E-11
   5.68E-12  5.98E-12  7.15E-12  6.55E-12  8.97E-13  3.60E-12  2.00E-12  6.49E-13
   2.12E-12  1.50E-12  2.89E-12  3.30E-12  6.74E-12  3.62E-12  5.25E-12  1.30E-11
   1.71E-11  5.70E-12  6.00E-12  6.87E-12  4.43E-11  4.09E-11  3.46E-12  3.12E-12
   1.30E-12  5.57E-12  2.13E-12  1.40E-12  1.14E-12  2.42E-13  2.85E-11  3.26E-11
   1.22E-10  2.25E-11  1.28E-10  2.30E-11  3.18E-12  6.56E-12  5.31E-12  4.33E-12
   3.20E-12  5.68E-12  1.77E-11  1.38E-11  5.64E-12  4.16E-12  2.85E-11  7.27E-12
   2.15E-10  2.10E-10  3.07E-11  2.68E-11  3.29E-11  3.06E-11  1.28E-10  9.94E-11
   2.23E-11  2.51E-11  2.63E-11  4.09E-11  3.15E-11  1.94E-11  2.31E-10  3.95E-10
   5.27E-11  4.86E-11  1.52E-10  1.96E-10  1.19E-09  1.46E-09  2.92E-10  5.03E-10
   1.21E-10  4.46E-11  4.29E-11  1.89E-11  7.68E-11  7.34E-11  2.17E-09  9.34E-05
   0.4167  0.4167  0.5000    1  1.10589E-05 kpt; spin; max resid(k); each band:
   1.69E-12  1.69E-12  1.33E-12  1.34E-12  1.37E-12  1.37E-12  3.30E-12  3.31E-12
   4.78E-09  5.26E-09  3.97E-09  3.76E-09  5.56E-09  4.90E-09  5.44E-09  4.18E-09
   5.49E-09  5.08E-09  4.38E-09  5.11E-09  3.91E-09  5.17E-09  5.14E-09  8.00E-10
   5.93E-09  5.15E-09  3.92E-09  5.78E-09  2.86E-09  2.54E-09  1.04E-09  2.09E-09
   1.31E-09  4.44E-10  1.62E-09  1.51E-10  1.08E-10  1.44E-10  5.82E-11  1.33E-10
   9.36E-11  3.96E-10  1.43E-10  2.43E-10  1.98E-11  3.46E-11  5.02E-11  3.73E-11
   3.89E-12  1.06E-11  1.11E-11  4.99E-12  9.43E-13  1.13E-13  3.84E-12  1.13E-12
   1.23E-13  1.71E-12  2.69E-12  5.79E-12  4.75E-11  2.22E-11  3.03E-11  2.20E-13
   6.64E-12  1.04E-11  4.43E-12  5.41E-12  1.21E-11  5.62E-12  5.31E-12  2.97E-12
   2.28E-12  5.65E-12  3.85E-12  9.93E-13  1.21E-12  5.49E-14  2.87E-11  1.19E-10
   5.48E-11  1.41E-10  1.50E-11  3.75E-12  2.23E-12  6.02E-12  5.04E-12  4.13E-12
   2.14E-12  2.25E-12  1.76E-11  8.08E-12  8.93E-12  2.79E-12  3.70E-12  2.26E-11
   2.26E-11  2.18E-11  2.75E-11  3.09E-11  3.23E-11  1.95E-11  3.36E-11  2.52E-11
   8.27E-11  6.28E-11  2.70E-11  2.17E-11  2.62E-11  2.80E-11  3.08E-11  6.06E-11
   1.41E-10  2.89E-11  3.34E-10  2.81E-11  1.61E-10  1.07E-10  7.70E-10  5.26E-10
   6.46E-11  3.14E-10  6.27E-11  5.88E-11  7.37E-11  6.43E-11  4.50E-08  1.11E-05
 prteigrs : about to open file Cs2TiI6o_EIG
 Fermi (or HOMO) energy (hartree) =   0.13490   Average Vxc (hartree)=  -0.31635
 Eigenvalues (hartree) for nkpt=   6  k points:
 kpt#   1, nband=128, wtk=  0.11111, kpt=  0.0833  0.0833  0.5000 (reduced coord)
  -4.73213   -4.73212   -2.96942   -2.96904   -2.96734   -2.96679   -2.96673   -2.96662
  -1.68139   -1.68115   -1.68058   -1.68000   -1.67923   -1.67913   -1.67900   -1.67856
  -1.67785   -1.67717   -1.67679   -1.67607   -1.67587   -1.67511   -1.67464   -1.67459
  -1.67430   -1.67395   -1.67380   -1.67325   -1.67262   -1.67201   -1.67198   -1.67155
  -1.67089   -1.67080   -1.67031   -1.66924   -1.66600   -1.66589   -1.65249   -1.65239
  -1.65066   -1.64890   -1.64859   -1.64859   -1.64810   -1.64609   -1.64452   -1.64407
  -0.67469   -0.67298   -0.67295   -0.67280   -0.67213   -0.67200   -0.67180   -0.67172
  -0.67080   -0.67077   -0.66668   -0.66547   -0.66545   -0.66501   -0.66451   -0.66432
  -0.66416   -0.66409   -0.66403   -0.66363   -0.66362   -0.66351   -0.66342   -0.66210
  -0.66210   -0.66200   -0.66057   -0.66047   -0.66024   -0.66021   -0.42581   -0.41325
  -0.40220   -0.39725   -0.37777   -0.37678   -0.35846   -0.35372   -0.19483   -0.19220
  -0.19194   -0.19121   -0.19109   -0.17966   -0.17960   -0.17762   -0.17393   -0.17234
  -0.14716   -0.14432   -0.12092   -0.11838   -0.08677   -0.07974   -0.07588   -0.05955
  -0.04282   -0.03146   -0.02789   -0.01333   -0.00980   -0.00836   -0.00236   -0.00093
   0.01085    0.01662    0.02994    0.03022    0.03235    0.03649    0.04658    0.05318
   0.05979    0.06096    0.06506    0.06900    0.09810    0.11134    0.15700    0.17210
 kpt#   2, nband=128, wtk=  0.22222, kpt=  0.2500  0.0833  0.5000 (reduced coord)
  -4.73212   -4.73211   -2.96843   -2.96734   -2.96710   -2.96687   -2.96672   -2.96642
  -1.68016   -1.67934   -1.67886   -1.67834   -1.67786   -1.67722   -1.67683   -1.67653
  -1.67619   -1.67546   -1.67525   -1.67473   -1.67468   -1.67448   -1.67379   -1.67348
  -1.67259   -1.67219   -1.67189   -1.67167   -1.67124   -1.67073   -1.67016   -1.66992
  -1.66888   -1.66828   -1.66774   -1.66708   -1.66552   -1.66497   -1.65149   -1.64932
  -1.64880   -1.64820   -1.64741   -1.64663   -1.64555   -1.64466   -1.64407   -1.64275
  -0.67401   -0.67274   -0.67267   -0.67220   -0.67186   -0.67174   -0.67157   -0.67127
  -0.67098   -0.67076   -0.66607   -0.66518   -0.66509   -0.66453   -0.66423   -0.66402
  -0.66391   -0.66380   -0.66371   -0.66354   -0.66347   -0.66326   -0.66285   -0.66216
  -0.66198   -0.66172   -0.66037   -0.66018   -0.66013   -0.65990   -0.41477   -0.40361
  -0.39541   -0.38990   -0.37624   -0.37453   -0.35668   -0.35276   -0.19416   -0.18955
  -0.18868   -0.18838   -0.18733   -0.18153   -0.17767   -0.17673   -0.17425   -0.17392
  -0.17086   -0.16655   -0.14671   -0.14609   -0.12014   -0.10217   -0.08146   -0.07433
  -0.06086   -0.04013   -0.02384   -0.02317   -0.00524    0.00388    0.00974    0.01215
   0.02189    0.03324    0.03438    0.03904    0.04293    0.04577    0.04767    0.05064
   0.05693    0.07791    0.10157    0.10750    0.10945    0.13152    0.17050    0.17711
 kpt#   3, nband=128, wtk=  0.22222, kpt=  0.4167  0.0833  0.5000 (reduced coord)
  -4.73212   -4.73212   -2.96837   -2.96775   -2.96763   -2.96718   -2.96693   -2.96682
  -1.68045   -1.67957   -1.67924   -1.67895   -1.67866   -1.67825   -1.67823   -1.67768
  -1.67690   -1.67633   -1.67617   -1.67597   -1.67518   -1.67464   -1.67455   -1.67411
  -1.67375   -1.67342   -1.67287   -1.67267   -1.67180   -1.67149   -1.67112   -1.67066
  -1.67047   -1.66955   -1.66932   -1.66888   -1.66635   -1.66543   -1.65223   -1.64990
  -1.64970   -1.64945   -1.64852   -1.64783   -1.64575   -1.64561   -1.64497   -1.64437
  -0.67363   -0.67298   -0.67274   -0.67227   -0.67218   -0.67200   -0.67167   -0.67143
  -0.67121   -0.67080   -0.66567   -0.66540   -0.66526   -0.66475   -0.66436   -0.66422
  -0.66410   -0.66389   -0.66375   -0.66367   -0.66357   -0.66351   -0.66296   -0.66240
  -0.66207   -0.66180   -0.66060   -0.66047   -0.66023   -0.65998   -0.39624   -0.38936
  -0.38562   -0.38287   -0.37879   -0.37840   -0.35639   -0.35217   -0.19137   -0.19065
  -0.18826   -0.18678   -0.18607   -0.18497   -0.18408   -0.18291   -0.18106   -0.18051
  -0.17922   -0.17529   -0.16926   -0.16498   -0.15069   -0.14018   -0.09315   -0.09301
  -0.05286   -0.02094   -0.01474    0.00193    0.00345    0.01804    0.01843    0.02542
   0.02619    0.02634    0.03619    0.03884    0.04010    0.04582    0.04620    0.05461
   0.09141    0.10827    0.11238    0.11629    0.12268    0.13490    0.15136    0.15234
 kpt#   4, nband=128, wtk=  0.11111, kpt=  0.2500  0.2500  0.5000 (reduced coord)
  -4.73213   -4.73211   -2.96831   -2.96782   -2.96767   -2.96730   -2.96651   -2.96650
  -1.68004   -1.67945   -1.67926   -1.67886   -1.67840   -1.67737   -1.67668   -1.67660
  -1.67634   -1.67603   -1.67563   -1.67539   -1.67495   -1.67447   -1.67405   -1.67374
  -1.67319   -1.67312   -1.67267   -1.67211   -1.67186   -1.67113   -1.67050   -1.67035
  -1.67013   -1.66962   -1.66863   -1.66791   -1.66778   -1.66679   -1.65239   -1.64958
  -1.64934   -1.64871   -1.64866   -1.64750   -1.64545   -1.64499   -1.64482   -1.64467
  -0.67387   -0.67327   -0.67259   -0.67227   -0.67205   -0.67192   -0.67181   -0.67114
  -0.67098   -0.67094   -0.66611   -0.66552   -0.66486   -0.66458   -0.66441   -0.66425
  -0.66412   -0.66402   -0.66380   -0.66372   -0.66350   -0.66331   -0.66269   -0.66219
  -0.66216   -0.66170   -0.66076   -0.66039   -0.66036   -0.65970   -0.40442   -0.39464
  -0.38938   -0.38317   -0.37498   -0.37162   -0.35340   -0.34938   -0.19693   -0.18746
  -0.18690   -0.18581   -0.18447   -0.18267   -0.17887   -0.17809   -0.17586   -0.17555
  -0.17148   -0.16651   -0.14867   -0.14300   -0.12488   -0.11043   -0.08281   -0.07956
  -0.06396   -0.06163   -0.05839   -0.04468   -0.03129   -0.02215   -0.01157   -0.00072
  -0.00068    0.00849    0.02472    0.02550    0.02884    0.03502    0.04254    0.04513
   0.07179    0.09003    0.09775    0.10219    0.11126    0.13332    0.17049    0.17886
 kpt#   5, nband=128, wtk=  0.22222, kpt=  0.4167  0.2500  0.5000 (reduced coord)
  -4.73212   -4.73212   -2.96860   -2.96821   -2.96725   -2.96697   -2.96688   -2.96682
  -1.68023   -1.67926   -1.67908   -1.67873   -1.67839   -1.67778   -1.67761   -1.67738
  -1.67652   -1.67623   -1.67580   -1.67558   -1.67524   -1.67495   -1.67461   -1.67414
  -1.67398   -1.67335   -1.67308   -1.67258   -1.67205   -1.67165   -1.67134   -1.67126
  -1.67055   -1.66968   -1.66899   -1.66815   -1.66796   -1.66599   -1.65183   -1.65090
  -1.64916   -1.64901   -1.64882   -1.64761   -1.64699   -1.64514   -1.64502   -1.64479
  -0.67377   -0.67354   -0.67252   -0.67239   -0.67206   -0.67199   -0.67188   -0.67119
  -0.67112   -0.67099   -0.66625   -0.66543   -0.66488   -0.66458   -0.66446   -0.66433
  -0.66420   -0.66413   -0.66390   -0.66383   -0.66348   -0.66336   -0.66273   -0.66230
  -0.66218   -0.66156   -0.66099   -0.66050   -0.66039   -0.65976   -0.38799   -0.38217
  -0.38106   -0.37705   -0.37564   -0.37413   -0.35042   -0.34616   -0.19512   -0.18872
  -0.18627   -0.18531   -0.18351   -0.18000   -0.17998   -0.17919   -0.17748   -0.17717
  -0.17488   -0.17468   -0.15495   -0.15092   -0.13594   -0.12933   -0.08829   -0.08351
  -0.06974   -0.06073   -0.04150   -0.03947   -0.02766   -0.02670   -0.01749   -0.01401
  -0.01041   -0.00294    0.00132    0.01061    0.01448    0.01813    0.02352    0.02987
   0.04653    0.05285    0.06814    0.06961    0.09397    0.11206    0.18349    0.20767
 kpt#   6, nband=128, wtk=  0.11111, kpt=  0.4167  0.4167  0.5000 (reduced coord)
  -4.73212   -4.73212   -2.96836   -2.96766   -2.96761   -2.96726   -2.96674   -2.96657
  -1.67999   -1.67914   -1.67883   -1.67854   -1.67804   -1.67727   -1.67718   -1.67692
  -1.67685   -1.67645   -1.67627   -1.67618   -1.67558   -1.67511   -1.67396   -1.67369
  -1.67366   -1.67331   -1.67307   -1.67236   -1.67201   -1.67191   -1.67154   -1.67111
  -1.66991   -1.66987   -1.66957   -1.66710   -1.66592   -1.66543   -1.65180   -1.65113
  -1.64859   -1.64836   -1.64771   -1.64750   -1.64739   -1.64487   -1.64417   -1.64386
  -0.67422   -0.67355   -0.67279   -0.67224   -0.67200   -0.67183   -0.67180   -0.67114
  -0.67097   -0.67095   -0.66672   -0.66549   -0.66490   -0.66465   -0.66457   -0.66435
  -0.66417   -0.66403   -0.66396   -0.66375   -0.66323   -0.66320   -0.66250   -0.66226
  -0.66213   -0.66145   -0.66128   -0.66050   -0.66032   -0.65955   -0.37695   -0.37552
  -0.37366   -0.37347   -0.37191   -0.37022   -0.34397   -0.33965   -0.19694   -0.19398
  -0.18486   -0.18414   -0.18128   -0.17798   -0.17735   -0.17710   -0.17642   -0.17594
  -0.15779   -0.15676   -0.13354   -0.13212   -0.11648   -0.10714   -0.10643   -0.09122
  -0.08607   -0.08218   -0.07140   -0.06822   -0.06772   -0.04916   -0.04807   -0.03152
  -0.02869   -0.02541   -0.02319   -0.01483   -0.01082   -0.00301   -0.00094    0.00147
   0.01020    0.01215    0.03866    0.04737    0.09742    0.10551    0.20496    0.21584
 Total charge density [el/Bohr^3]
      Maximum=    4.1023E+00  at reduced coord.    0.0000    0.9444    0.9542
 Next maximum=    4.1023E+00  at reduced coord.    0.4444    0.5000    0.9542
      Minimum=    1.6828E-05  at reduced coord.    0.0000    0.4444    0.7792
 Next minimum=    1.6828E-05  at reduced coord.    0.0556    0.5000    0.7792
   Integrated=    2.5200E+02

 Cartesian components of stress tensor (hartree/bohr^3)
  sigma(1 1)=  1.56792201E-02  sigma(3 2)=  0.00000000E+00
  sigma(2 2)=  1.56792201E-02  sigma(3 1)=  0.00000000E+00
  sigma(3 3)=  1.54891572E-02  sigma(2 1)=  0.00000000E+00

-Cartesian components of stress tensor (GPa)         [Pressure= -4.5943E+02 GPa]
- sigma(1 1)=  4.61298503E+02  sigma(3 2)=  0.00000000E+00
- sigma(2 2)=  4.61298503E+02  sigma(3 1)=  0.00000000E+00
- sigma(3 3)=  4.55706661E+02  sigma(2 1)=  0.00000000E+00

== END DATASET(S) ==============================================================
================================================================================
  
 -outvars: echo values of variables after computation  --------
 
 These variables are accessible in NetCDF format (Cs2TiI6o_OUT.nc)

            acell      7.7624316804E+00  7.7624316804E+00  5.4752990302E+01 Bohr
              amu      1.18710000E+02  7.89600000E+01  6.53900000E+01
           diemac      1.20000000E+01
             ecut      2.25000000E+01 Hartree
           etotal     -1.8508354457E+03
            fcart     -0.0000000000E+00 -0.0000000000E+00 -1.4784612922E-02
                      -0.0000000000E+00 -0.0000000000E+00 -1.4782745413E-02
                      -0.0000000000E+00 -0.0000000000E+00  4.9550353393E-03
                      -0.0000000000E+00 -0.0000000000E+00 -3.5970205593E-03
                      -0.0000000000E+00 -0.0000000000E+00  1.6091119260E-02
                      -0.0000000000E+00 -0.0000000000E+00  1.3352940448E-02
                      -0.0000000000E+00 -0.0000000000E+00 -1.6851504211E-02
                      -0.0000000000E+00 -0.0000000000E+00 -1.1662685583E-02
                      -0.0000000000E+00 -0.0000000000E+00  1.4294813114E-04
                      -0.0000000000E+00 -0.0000000000E+00 -6.3455208953E-03
                      -0.0000000000E+00 -0.0000000000E+00  5.5384115828E-03
                      -0.0000000000E+00 -0.0000000000E+00  1.1511134025E-02
                      -0.0000000000E+00 -0.0000000000E+00  9.1616212213E-03
                      -0.0000000000E+00 -0.0000000000E+00 -9.6943235977E-03
                      -0.0000000000E+00 -0.0000000000E+00  8.4826015864E-03
                      -0.0000000000E+00 -0.0000000000E+00  8.4826015864E-03
-          fftalg         112
             iscf          17
              ixc          11
              kpt      8.33333333E-02  8.33333333E-02  5.00000000E-01
                       2.50000000E-01  8.33333333E-02  5.00000000E-01
                       4.16666667E-01  8.33333333E-02  5.00000000E-01
                       2.50000000E-01  2.50000000E-01  5.00000000E-01
                       4.16666667E-01  2.50000000E-01  5.00000000E-01
                       4.16666667E-01  4.16666667E-01  5.00000000E-01
         kptrlatt        6    0    0      0    6    0      0    0    1
          kptrlen      4.65745901E+01
P           mkmem           2
            natom          16
            nband         128
            ngfft          36      36     240
             nkpt           6
            nstep         150
             nsym           8
           ntypat           3
              occ      2.000000  2.000000  2.000000  2.000000  2.000000  2.000000
                       2.000000  2.000000  2.000000  2.000000  2.000000  2.000000
                       2.000000  2.000000  2.000000  2.000000  2.000000  2.000000
                       2.000000  2.000000  2.000000  2.000000  2.000000  2.000000
                       2.000000  2.000000  2.000000  2.000000  2.000000  2.000000
                       2.000000  2.000000  2.000000  2.000000  2.000000  2.000000
                       2.000000  2.000000  2.000000  2.000000  2.000000  2.000000
                       2.000000  2.000000  2.000000  2.000000  2.000000  2.000000
                       2.000000  2.000000  2.000000  2.000000  2.000000  2.000000
                       2.000000  2.000000  2.000000  2.000000  2.000000  2.000000
                       2.000000  2.000000  2.000000  2.000000  2.000000  2.000000
                       2.000000  2.000000  2.000000  2.000000  2.000000  2.000000
                       2.000000  2.000000  2.000000  2.000000  2.000000  2.000000
                       2.000000  2.000000  2.000000  2.000000  2.000000  2.000000
                       2.000000  2.000000  2.000000  2.000000  2.000000  2.000000
                       2.000000  2.000000  2.000000  2.000000  2.000000  2.000000
                       2.000000  2.000000  2.000000  2.000000  2.000000  2.000000
                       2.000000  2.000000  2.000000  2.000000  2.000000  2.000000
                       2.000000  2.000000  2.000000  2.000000  2.000000  2.000000
                       2.000000  2.000000  2.000000  2.000000  2.000000  2.000000
                       2.000000  2.000000  2.000000  2.000000  2.000000  2.000000
                       0.000000  0.000000
           prtcif           1
            prtwf           0
           shiftk      5.00000000E-01  5.00000000E-01  5.00000000E-01
          spgroup          99
           strten      1.5679220055E-02  1.5679220055E-02  1.5489157174E-02
                       0.0000000000E+00  0.0000000000E+00  0.0000000000E+00
           symrel      1  0  0   0  1  0   0  0  1       1  0  0   0 -1  0   0  0  1
                      -1  0  0   0 -1  0   0  0  1      -1  0  0   0  1  0   0  0  1
                       0  1  0   1  0  0   0  0  1       0  1  0  -1  0  0   0  0  1
                       0 -1  0  -1  0  0   0  0  1       0 -1  0   1  0  0   0  0  1
            tnons      0.0000000  0.0000000  0.0000000     0.0000000 -0.0000000  0.0000000
                      -0.0000000 -0.0000000  0.0000000    -0.0000000  0.0000000  0.0000000
                       0.5000000  0.5000000  0.0000000     0.5000000  0.5000000  0.0000000
                       0.5000000  0.5000000  0.0000000     0.5000000  0.5000000  0.0000000
           toldfe      1.00000000E-06 Hartree
            typat      1  1  1  1  1  1  2  2  2  2  2  2  2  2  3  3
           vdw_xc           5
              wtk        0.11111    0.22222    0.22222    0.11111    0.22222    0.11111
           xangst      2.0538509642E+00 -1.0000005802E-10  4.6664681475E+00
                      -1.0000005802E-10  2.0538509642E+00  7.4160979620E+00
                       2.0538509642E+00 -1.0000005802E-10  1.0102196638E+01
                      -1.0000005802E-10  2.0538509642E+00  1.2851826453E+01
                       2.0538509642E+00 -1.0000005802E-10  1.5537925129E+01
                      -1.0000005802E-10  2.0538509642E+00  1.8287554943E+01
                      -1.0000005802E-10  2.0538509642E+00  4.6982333557E+00
                       2.0538509642E+00 -1.0000005802E-10  7.3919861282E+00
                      -1.0000005802E-10  2.0538509642E+00  1.0144465526E+01
                       2.0538509642E+00 -1.0000005802E-10  1.2833348659E+01
                      -1.0000005802E-10  2.0538509642E+00  1.5585828057E+01
                       2.0538509642E+00 -1.0000005802E-10  1.8274711190E+01
                       2.0538509642E+00 -1.0000005802E-10  2.5980923743E+01
                      -1.0000005802E-10  2.0538509642E+00  2.8974034570E+01
                       2.0538509642E+00  2.0538509642E+00  2.7477479156E+01
                      -1.0000005802E-10 -1.0000005802E-10  2.7477479156E+01
            xcart      3.8812158400E+00 -1.8897272293E-10  8.8183468067E+00
                      -1.8897272293E-10  3.8812158400E+00  1.4014394123E+01
                       3.8812158400E+00 -1.8897272293E-10  1.9090384987E+01
                      -1.8897272293E-10  3.8812158400E+00  2.4286432303E+01
                       3.8812158400E+00 -1.8897272293E-10  2.9362423167E+01
                      -1.8897272293E-10  3.8812158400E+00  3.4558470483E+01
                      -1.8897272293E-10  3.8812158400E+00  8.8783743507E+00
                       3.8812158400E+00 -1.8897272293E-10  1.3968829360E+01
                      -1.8897272293E-10  3.8812158400E+00  1.9170261609E+01
                       3.8812158400E+00 -1.8897272293E-10  2.4251514334E+01
                      -1.8897272293E-10  3.8812158400E+00  2.9452946582E+01
                       3.8812158400E+00 -1.8897272293E-10  3.4534199307E+01
                       3.8812158400E+00 -1.8897272293E-10  4.9096830554E+01
                      -1.8897272293E-10  3.8812158400E+00  5.4752990302E+01
                       3.8812158400E+00  3.8812158400E+00  5.1924910427E+01
                      -1.8897272293E-10 -1.8897272293E-10  5.1924910427E+01
             xred      4.9999999998E-01 -2.4344526395E-11  1.6105689859E-01
                      -2.4344526395E-11  4.9999999998E-01  2.5595668922E-01
                       4.9999999998E-01 -2.4344526395E-11  3.4866378770E-01
                      -2.4344526395E-11  4.9999999998E-01  4.4356357833E-01
                       4.9999999998E-01 -2.4344526395E-11  5.3627067681E-01
                      -2.4344526395E-11  4.9999999998E-01  6.3117046744E-01
                      -2.4344526395E-11  4.9999999998E-01  1.6215323221E-01
                       4.9999999998E-01 -2.4344526395E-11  2.5512450157E-01
                      -2.4344526395E-11  4.9999999998E-01  3.5012264175E-01
                       4.9999999998E-01 -2.4344526395E-11  4.4292584204E-01
                      -2.4344526395E-11  4.9999999998E-01  5.3792398222E-01
                       4.9999999998E-01 -2.4344526395E-11  6.3072718251E-01
                       4.9999999998E-01 -2.4344526395E-11  8.9669678830E-01
                      -2.4344526395E-11  4.9999999998E-01  1.0000000000E+00
                       4.9999999998E-01  4.9999999998E-01  9.4834839414E-01
                      -2.4344526395E-11 -2.4344526395E-11  9.4834839414E-01
            znucl       50.00000   34.00000   30.00000

================================================================================
  

================================================================================

 Suggested references for the acknowledgment of ABINIT usage.

 The users of ABINIT have little formal obligations with respect to the ABINIT group
 (those specified in the GNU General Public License, http://www.gnu.org/copyleft/gpl.txt).
 However, it is common practice in the scientific literature,
 to acknowledge the efforts of people that have made the research possible.
 In this spirit, please find below suggested citations of work written by ABINIT developers,
 corresponding to implementations inside of ABINIT that you have used in the present run.
 Note also that it will be of great value to readers of publications presenting these results,
 to read papers enabling them to understand the theoretical formalism and details
 of the ABINIT implementation.
 For information on why they are suggested, see also https://docs.abinit.org/theory/acknowledgments.
-
- [1] The Abinit project: Impact, environment and recent developments.
- Computer Phys. Comm. 248, 107042 (2020).
- X.Gonze, B. Amadon, G. Antonius, F.Arnardi, L.Baguet, J.-M.Beuken,
- J.Bieder, F.Bottin, J.Bouchet, E.Bousquet, N.Brouwer, F.Bruneval,
- G.Brunin, T.Cavignac, J.-B. Charraud, Wei Chen, M.Cote, S.Cottenier,
- J.Denier, G.Geneste, Ph.Ghosez, M.Giantomassi, Y.Gillet, O.Gingras,
- D.R.Hamann, G.Hautier, Xu He, N.Helbig, N.Holzwarth, Y.Jia, F.Jollet,
- W.Lafargue-Dit-Hauret, K.Lejaeghere, M.A.L.Marques, A.Martin, C.Martins,
- H.P.C. Miranda, F.Naccarato, K. Persson, G.Petretto, V.Planes, Y.Pouillon,
- S.Prokhorenko, F.Ricci, G.-M.Rignanese, A.H.Romero, M.M.Schmitt, M.Torrent,
- M.J.van Setten, B.Van Troeye, M.J.Verstraete, G.Zerah and J.W.Zwanzig
- Comment: the fifth generic paper describing the ABINIT project.
- Note that a version of this paper, that is not formatted for Computer Phys. Comm. 
- is available at https://www.abinit.org/sites/default/files/ABINIT20.pdf .
- The licence allows the authors to put it on the Web.
- DOI and bibtex: see https://docs.abinit.org/theory/bibliography/#gonze2020
-
- [2] Optimized norm-conserving Vanderbilt pseudopotentials.
- D.R. Hamann, Phys. Rev. B 88, 085117 (2013).
- Comment: Some pseudopotential generated using the ONCVPSP code were used.
- DOI and bibtex: see https://docs.abinit.org/theory/bibliography/#hamann2013
-
- [3] ABINIT: Overview, and focus on selected capabilities
- J. Chem. Phys. 152, 124102 (2020).
- A. Romero, D.C. Allan, B. Amadon, G. Antonius, T. Applencourt, L.Baguet,
- J.Bieder, F.Bottin, J.Bouchet, E.Bousquet, F.Bruneval,
- G.Brunin, D.Caliste, M.Cote,
- J.Denier, C. Dreyer, Ph.Ghosez, M.Giantomassi, Y.Gillet, O.Gingras,
- D.R.Hamann, G.Hautier, F.Jollet, G. Jomard,
- A.Martin, 
- H.P.C. Miranda, F.Naccarato, G.Petretto, N.A. Pike, V.Planes,
- S.Prokhorenko, T. Rangel, F.Ricci, G.-M.Rignanese, M.Royo, M.Stengel, M.Torrent,
- M.J.van Setten, B.Van Troeye, M.J.Verstraete, J.Wiktor, J.W.Zwanziger, and X.Gonze.
- Comment: a global overview of ABINIT, with focus on selected capabilities .
- Note that a version of this paper, that is not formatted for J. Chem. Phys 
- is available at https://www.abinit.org/sites/default/files/ABINIT20_JPC.pdf .
- The licence allows the authors to put it on the Web.
- DOI and bibtex: see https://docs.abinit.org/theory/bibliography/#romero2020
-
- [4] Recent developments in the ABINIT software package.
- Computer Phys. Comm. 205, 106 (2016).
- X.Gonze, F.Jollet, F.Abreu Araujo, D.Adams, B.Amadon, T.Applencourt,
- C.Audouze, J.-M.Beuken, J.Bieder, A.Bokhanchuk, E.Bousquet, F.Bruneval
- D.Caliste, M.Cote, F.Dahm, F.Da Pieve, M.Delaveau, M.Di Gennaro,
- B.Dorado, C.Espejo, G.Geneste, L.Genovese, A.Gerossier, M.Giantomassi,
- Y.Gillet, D.R.Hamann, L.He, G.Jomard, J.Laflamme Janssen, S.Le Roux,
- A.Levitt, A.Lherbier, F.Liu, I.Lukacevic, A.Martin, C.Martins,
- M.J.T.Oliveira, S.Ponce, Y.Pouillon, T.Rangel, G.-M.Rignanese,
- A.H.Romero, B.Rousseau, O.Rubel, A.A.Shukri, M.Stankovski, M.Torrent,
- M.J.Van Setten, B.Van Troeye, M.J.Verstraete, D.Waroquier, J.Wiktor,
- B.Xu, A.Zhou, J.W.Zwanziger.
- Comment: the fourth generic paper describing the ABINIT project.
- Note that a version of this paper, that is not formatted for Computer Phys. Comm. 
- is available at https://www.abinit.org/sites/default/files/ABINIT16.pdf .
- The licence allows the authors to put it on the Web.
- DOI and bibtex: see https://docs.abinit.org/theory/bibliography/#gonze2016
-
- And optionally:
-
- [5] ABINIT: First-principles approach of materials and nanosystem properties.
- Computer Phys. Comm. 180, 2582-2615 (2009).
- X. Gonze, B. Amadon, P.-M. Anglade, J.-M. Beuken, F. Bottin, P. Boulanger, F. Bruneval,
- D. Caliste, R. Caracas, M. Cote, T. Deutsch, L. Genovese, Ph. Ghosez, M. Giantomassi
- S. Goedecker, D.R. Hamann, P. Hermet, F. Jollet, G. Jomard, S. Leroux, M. Mancini, S. Mazevet,
- M.J.T. Oliveira, G. Onida, Y. Pouillon, T. Rangel, G.-M. Rignanese, D. Sangalli, R. Shaltaf,
- M. Torrent, M.J. Verstraete, G. Zerah, J.W. Zwanziger
- Comment: the third generic paper describing the ABINIT project.
- Note that a version of this paper, that is not formatted for Computer Phys. Comm. 
- is available at https://www.abinit.org/sites/default/files/ABINIT_CPC_v10.pdf .
- The licence allows the authors to put it on the Web.
- DOI and bibtex: see https://docs.abinit.org/theory/bibliography/#gonze2009
 Proc.   0 individual time (sec): cpu=       1364.2  wall=       1365.7

 Calculation completed.
.Delivered   0 WARNINGs and   0 COMMENTs to log file.

--- !FinalSummary
program: abinit
version: 9.2.2
start_datetime: Sun Mar 17 00:25:24 2024
end_datetime: Sun Mar 17 00:48:10 2024
overall_cpu_time:        5457.7
overall_wall_time:        5462.7
exit_requested_by_user: no 
timelimit: 0
pseudos: 
    Sn  : c918e999fc214fef37654f9ff7d5f03d
    Se  : f801923bd422df98a30264e8ccc86374
    Zn  : 80c9b4d1484b64588a366a4998a7c40d
usepaw: 0
mpi_procs: 4
omp_threads: 1
num_warnings: 0
num_comments: 0
...
