
.Version 9.2.2 of ABINIT 
.(MPI version, prepared for a x86_64_linux_gnu9.3 computer) 

.Copyright (C) 1998-2020 ABINIT group . 
 ABINIT comes with ABSOLUTELY NO WARRANTY.
 It is free software, and you are welcome to redistribute it
 under certain conditions (GNU General Public License,
 see ~abinit/COPYING or http://www.gnu.org/copyleft/gpl.txt).

 ABINIT is a project of the Universite Catholique de Louvain,
 Corning Inc. and other collaborators, see ~abinit/doc/developers/contributors.txt .
 Please read https://docs.abinit.org/theory/acknowledgments for suggested
 acknowledgments of the ABINIT effort.
 For more information, see https://www.abinit.org .

.Starting date : Sat 16 Mar 2024.
- ( at 20h02 )
  
- The starting date is more than 3 years after the initial release
- of this version of ABINIT, namely Nov 2020.
- This version of ABINIT is not supported anymore.
- Action: please, switch to a more recent version of ABINIT.
- input  file    -> Cs2TiI6.in
- output file    -> Cs2TiI6.out
- root for input  files -> Cs2TiI6i
- root for output files -> Cs2TiI6o


 DATASET    1 : space group P4 m m (# 99); Bravais tP (primitive tetrag.)
================================================================================
 Values of the parameters that define the memory need for DATASET  1.
     intxc =       0    ionmov =       0      iscf =       7    lmnmax =       6
     lnmax =       6     mgfft =     180  mpssoang =       3    mqgrid =    8458
     natom =      10  nloc_mem =       1    nspden =       1   nspinor =       1
    nsppol =       1      nsym =       8    n1xccc =    2501    ntypat =       3
    occopt =       1   xclevel =       2
-    mband =          83        mffmem =           1         mkmem =           3
       mpw =       12196          nfft =      233280          nkpt =          15
================================================================================
P This job should need less than                     125.370 Mbytes of memory.
  Rough estimation (10% accuracy) of disk space for files :
_ WF disk file :    231.692 Mbytes ; DEN or POT disk file :      1.782 Mbytes.
================================================================================


 DATASET    2 : space group P4 m m (# 99); Bravais tP (primitive tetrag.)
================================================================================
 Values of the parameters that define the memory need for DATASET  2.
     intxc =       0    ionmov =       0      iscf =      -2    lmnmax =       6
     lnmax =       6     mgfft =     180  mpssoang =       3    mqgrid =    8458
     natom =      10  nloc_mem =       1    nspden =       1   nspinor =       1
    nsppol =       1      nsym =       8    n1xccc =    2501    ntypat =       3
    occopt =       1   xclevel =       2
-    mband =         180        mffmem =           1         mkmem =           3
       mpw =       12196          nfft =      233280          nkpt =          15
================================================================================
P This job should need less than                     149.301 Mbytes of memory.
  Rough estimation (10% accuracy) of disk space for files :
_ WF disk file :    502.462 Mbytes ; DEN or POT disk file :      1.782 Mbytes.
================================================================================


 DATASET    3 : space group P4 m m (# 99); Bravais tP (primitive tetrag.)
================================================================================
 Values of the parameters that define the memory need for DATASET  3.
     intxc =       0    ionmov =       0      iscf =      -2    lmnmax =       6
     lnmax =       6     mgfft =     180  mpssoang =       3    mqgrid =    8458
     natom =      10  nloc_mem =       1    nspden =       1   nspinor =       1
    nsppol =       1      nsym =       8    n1xccc =    2501    ntypat =       3
    occopt =       1   xclevel =       2
-    mband =         180        mffmem =           1         mkmem =          17
       mpw =       12196          nfft =      233280          nkpt =         100
================================================================================
P This job should need less than                     624.119 Mbytes of memory.
  Rough estimation (10% accuracy) of disk space for files :
_ WF disk file :   3349.733 Mbytes ; DEN or POT disk file :      1.782 Mbytes.
================================================================================


 DATASET    4 : space group P4 m m (# 99); Bravais tP (primitive tetrag.)
================================================================================
 Values of the parameters that define the memory need for DATASET  4 (RF).
     intxc =       0      iscf =      -3    lmnmax =       6     lnmax =       6
     mgfft =     180  mpssoang =       3    mqgrid =    8458     natom =      10
  nloc_mem =       1    nspden =       1   nspinor =       1    nsppol =       1
      nsym =       8    n1xccc =    2501    ntypat =       3    occopt =       1
   xclevel =       2
-    mband =         180        mffmem =           1         mkmem =          17
-   mkqmem =          17        mk1mem =          17           mpw =       12196
      nfft =      233280          nkpt =         100
================================================================================
P This job should need less than                    1822.228 Mbytes of memory.
  Rough estimation (10% accuracy) of disk space for files :
_ WF disk file :   -746.267 Mbytes ; DEN or POT disk file :      1.782 Mbytes.
================================================================================


 DATASET    5 : space group P4 m m (# 99); Bravais tP (primitive tetrag.)
================================================================================
 Values of the parameters that define the memory need for DATASET  5 (RF).
     intxc =       0      iscf =      -3    lmnmax =       6     lnmax =       6
     mgfft =     180  mpssoang =       3    mqgrid =    8458     natom =      10
  nloc_mem =       1    nspden =       1   nspinor =       1    nsppol =       1
      nsym =       8    n1xccc =    2501    ntypat =       3    occopt =       1
   xclevel =       2
-    mband =         180        mffmem =           1         mkmem =          17
-   mkqmem =          17        mk1mem =          17           mpw =       12196
      nfft =      233280          nkpt =         100
================================================================================
P This job should need less than                    1822.228 Mbytes of memory.
  Rough estimation (10% accuracy) of disk space for files :
_ WF disk file :   -746.267 Mbytes ; DEN or POT disk file :      1.782 Mbytes.
================================================================================


 DATASET    6 : space group P4 m m (# 99); Bravais tP (primitive tetrag.)
================================================================================
 Values of the parameters that define the memory need for DATASET  6 (RF).
     intxc =       0      iscf =      -3    lmnmax =       6     lnmax =       6
     mgfft =     180  mpssoang =       3    mqgrid =    8458     natom =      10
  nloc_mem =       1    nspden =       1   nspinor =       1    nsppol =       1
      nsym =       8    n1xccc =    2501    ntypat =       3    occopt =       1
   xclevel =       2
-    mband =         180        mffmem =           1         mkmem =          17
-   mkqmem =          17        mk1mem =          17           mpw =       12196
      nfft =      233280          nkpt =         100
================================================================================
P This job should need less than                    1822.228 Mbytes of memory.
  Rough estimation (10% accuracy) of disk space for files :
_ WF disk file :   -746.267 Mbytes ; DEN or POT disk file :      1.782 Mbytes.
================================================================================

--------------------------------------------------------------------------------
------------- Echo of variables that govern the present computation ------------
--------------------------------------------------------------------------------
-
- outvars: echo of selected default values                                      
-   iomode0 =  0 , fftalg0 =112 , wfoptalg0 =  0
-
- outvars: echo of global parameters not present in the input file              
-  max_nthreads =    0
-
 -outvars: echo values of preprocessed input variables --------
            acell      7.7624316804E+00  7.7624316804E+00  7.7624316804E+00 Bohr
              amu      1.18710000E+02  7.89600000E+01  6.53900000E+01
           diemac      1.20000000E+01
             ecut      2.25000000E+01 Hartree
-          fftalg         112
           getden1          0
           getden2          1
           getden3          1
           getden4          0
           getden5          0
           getden6          0
           getwfk1          0
           getwfk2          1
           getwfk3          2
           getwfk4          3
           getwfk5          3
           getwfk6          3
             iscf1          7
             iscf2         -2
             iscf3         -2
             iscf4         -3
             iscf5         -3
             iscf6         -3
              ixc          11
           jdtset        1    2    3    4    5    6
              kpt1     5.00000000E-02  5.00000000E-02  2.50000000E-01
                       1.50000000E-01  5.00000000E-02  2.50000000E-01
                       2.50000000E-01  5.00000000E-02  2.50000000E-01
                       3.50000000E-01  5.00000000E-02  2.50000000E-01
                       4.50000000E-01  5.00000000E-02  2.50000000E-01
                       1.50000000E-01  1.50000000E-01  2.50000000E-01
                       2.50000000E-01  1.50000000E-01  2.50000000E-01
                       3.50000000E-01  1.50000000E-01  2.50000000E-01
                       4.50000000E-01  1.50000000E-01  2.50000000E-01
                       2.50000000E-01  2.50000000E-01  2.50000000E-01
                       3.50000000E-01  2.50000000E-01  2.50000000E-01
                       4.50000000E-01  2.50000000E-01  2.50000000E-01
                       3.50000000E-01  3.50000000E-01  2.50000000E-01
                       4.50000000E-01  3.50000000E-01  2.50000000E-01
                       4.50000000E-01  4.50000000E-01  2.50000000E-01
              kpt2     5.00000000E-02  5.00000000E-02  2.50000000E-01
                       1.50000000E-01  5.00000000E-02  2.50000000E-01
                       2.50000000E-01  5.00000000E-02  2.50000000E-01
                       3.50000000E-01  5.00000000E-02  2.50000000E-01
                       4.50000000E-01  5.00000000E-02  2.50000000E-01
                       1.50000000E-01  1.50000000E-01  2.50000000E-01
                       2.50000000E-01  1.50000000E-01  2.50000000E-01
                       3.50000000E-01  1.50000000E-01  2.50000000E-01
                       4.50000000E-01  1.50000000E-01  2.50000000E-01
                       2.50000000E-01  2.50000000E-01  2.50000000E-01
                       3.50000000E-01  2.50000000E-01  2.50000000E-01
                       4.50000000E-01  2.50000000E-01  2.50000000E-01
                       3.50000000E-01  3.50000000E-01  2.50000000E-01
                       4.50000000E-01  3.50000000E-01  2.50000000E-01
                       4.50000000E-01  4.50000000E-01  2.50000000E-01
              kpt3     5.00000000E-02  5.00000000E-02  2.50000000E-01
                       1.50000000E-01  5.00000000E-02  2.50000000E-01
                       2.50000000E-01  5.00000000E-02  2.50000000E-01
                       3.50000000E-01  5.00000000E-02  2.50000000E-01
                       4.50000000E-01  5.00000000E-02  2.50000000E-01
                      -4.50000000E-01  5.00000000E-02  2.50000000E-01
                      -3.50000000E-01  5.00000000E-02  2.50000000E-01
                      -2.50000000E-01  5.00000000E-02  2.50000000E-01
                      -1.50000000E-01  5.00000000E-02  2.50000000E-01
                      -5.00000000E-02  5.00000000E-02  2.50000000E-01
                       5.00000000E-02  1.50000000E-01  2.50000000E-01
                       1.50000000E-01  1.50000000E-01  2.50000000E-01
                       2.50000000E-01  1.50000000E-01  2.50000000E-01
                       3.50000000E-01  1.50000000E-01  2.50000000E-01
                       4.50000000E-01  1.50000000E-01  2.50000000E-01
                      -4.50000000E-01  1.50000000E-01  2.50000000E-01
                      -3.50000000E-01  1.50000000E-01  2.50000000E-01
                      -2.50000000E-01  1.50000000E-01  2.50000000E-01
                      -1.50000000E-01  1.50000000E-01  2.50000000E-01
                      -5.00000000E-02  1.50000000E-01  2.50000000E-01
                       5.00000000E-02  2.50000000E-01  2.50000000E-01
                       1.50000000E-01  2.50000000E-01  2.50000000E-01
                       2.50000000E-01  2.50000000E-01  2.50000000E-01
                       3.50000000E-01  2.50000000E-01  2.50000000E-01
                       4.50000000E-01  2.50000000E-01  2.50000000E-01
                      -4.50000000E-01  2.50000000E-01  2.50000000E-01
                      -3.50000000E-01  2.50000000E-01  2.50000000E-01
                      -2.50000000E-01  2.50000000E-01  2.50000000E-01
                      -1.50000000E-01  2.50000000E-01  2.50000000E-01
                      -5.00000000E-02  2.50000000E-01  2.50000000E-01
                       5.00000000E-02  3.50000000E-01  2.50000000E-01
                       1.50000000E-01  3.50000000E-01  2.50000000E-01
                       2.50000000E-01  3.50000000E-01  2.50000000E-01
                       3.50000000E-01  3.50000000E-01  2.50000000E-01
                       4.50000000E-01  3.50000000E-01  2.50000000E-01
                      -4.50000000E-01  3.50000000E-01  2.50000000E-01
                      -3.50000000E-01  3.50000000E-01  2.50000000E-01
                      -2.50000000E-01  3.50000000E-01  2.50000000E-01
                      -1.50000000E-01  3.50000000E-01  2.50000000E-01
                      -5.00000000E-02  3.50000000E-01  2.50000000E-01
                       5.00000000E-02  4.50000000E-01  2.50000000E-01
                       1.50000000E-01  4.50000000E-01  2.50000000E-01
                       2.50000000E-01  4.50000000E-01  2.50000000E-01
                       3.50000000E-01  4.50000000E-01  2.50000000E-01
                       4.50000000E-01  4.50000000E-01  2.50000000E-01
                      -4.50000000E-01  4.50000000E-01  2.50000000E-01
                      -3.50000000E-01  4.50000000E-01  2.50000000E-01
                      -2.50000000E-01  4.50000000E-01  2.50000000E-01
                      -1.50000000E-01  4.50000000E-01  2.50000000E-01
                      -5.00000000E-02  4.50000000E-01  2.50000000E-01
              kpt4     5.00000000E-02  5.00000000E-02  2.50000000E-01
                       1.50000000E-01  5.00000000E-02  2.50000000E-01
                       2.50000000E-01  5.00000000E-02  2.50000000E-01
                       3.50000000E-01  5.00000000E-02  2.50000000E-01
                       4.50000000E-01  5.00000000E-02  2.50000000E-01
                      -4.50000000E-01  5.00000000E-02  2.50000000E-01
                      -3.50000000E-01  5.00000000E-02  2.50000000E-01
                      -2.50000000E-01  5.00000000E-02  2.50000000E-01
                      -1.50000000E-01  5.00000000E-02  2.50000000E-01
                      -5.00000000E-02  5.00000000E-02  2.50000000E-01
                       5.00000000E-02  1.50000000E-01  2.50000000E-01
                       1.50000000E-01  1.50000000E-01  2.50000000E-01
                       2.50000000E-01  1.50000000E-01  2.50000000E-01
                       3.50000000E-01  1.50000000E-01  2.50000000E-01
                       4.50000000E-01  1.50000000E-01  2.50000000E-01
                      -4.50000000E-01  1.50000000E-01  2.50000000E-01
                      -3.50000000E-01  1.50000000E-01  2.50000000E-01
                      -2.50000000E-01  1.50000000E-01  2.50000000E-01
                      -1.50000000E-01  1.50000000E-01  2.50000000E-01
                      -5.00000000E-02  1.50000000E-01  2.50000000E-01
                       5.00000000E-02  2.50000000E-01  2.50000000E-01
                       1.50000000E-01  2.50000000E-01  2.50000000E-01
                       2.50000000E-01  2.50000000E-01  2.50000000E-01
                       3.50000000E-01  2.50000000E-01  2.50000000E-01
                       4.50000000E-01  2.50000000E-01  2.50000000E-01
                      -4.50000000E-01  2.50000000E-01  2.50000000E-01
                      -3.50000000E-01  2.50000000E-01  2.50000000E-01
                      -2.50000000E-01  2.50000000E-01  2.50000000E-01
                      -1.50000000E-01  2.50000000E-01  2.50000000E-01
                      -5.00000000E-02  2.50000000E-01  2.50000000E-01
                       5.00000000E-02  3.50000000E-01  2.50000000E-01
                       1.50000000E-01  3.50000000E-01  2.50000000E-01
                       2.50000000E-01  3.50000000E-01  2.50000000E-01
                       3.50000000E-01  3.50000000E-01  2.50000000E-01
                       4.50000000E-01  3.50000000E-01  2.50000000E-01
                      -4.50000000E-01  3.50000000E-01  2.50000000E-01
                      -3.50000000E-01  3.50000000E-01  2.50000000E-01
                      -2.50000000E-01  3.50000000E-01  2.50000000E-01
                      -1.50000000E-01  3.50000000E-01  2.50000000E-01
                      -5.00000000E-02  3.50000000E-01  2.50000000E-01
                       5.00000000E-02  4.50000000E-01  2.50000000E-01
                       1.50000000E-01  4.50000000E-01  2.50000000E-01
                       2.50000000E-01  4.50000000E-01  2.50000000E-01
                       3.50000000E-01  4.50000000E-01  2.50000000E-01
                       4.50000000E-01  4.50000000E-01  2.50000000E-01
                      -4.50000000E-01  4.50000000E-01  2.50000000E-01
                      -3.50000000E-01  4.50000000E-01  2.50000000E-01
                      -2.50000000E-01  4.50000000E-01  2.50000000E-01
                      -1.50000000E-01  4.50000000E-01  2.50000000E-01
                      -5.00000000E-02  4.50000000E-01  2.50000000E-01
              kpt5     5.00000000E-02  5.00000000E-02  2.50000000E-01
                       1.50000000E-01  5.00000000E-02  2.50000000E-01
                       2.50000000E-01  5.00000000E-02  2.50000000E-01
                       3.50000000E-01  5.00000000E-02  2.50000000E-01
                       4.50000000E-01  5.00000000E-02  2.50000000E-01
                      -4.50000000E-01  5.00000000E-02  2.50000000E-01
                      -3.50000000E-01  5.00000000E-02  2.50000000E-01
                      -2.50000000E-01  5.00000000E-02  2.50000000E-01
                      -1.50000000E-01  5.00000000E-02  2.50000000E-01
                      -5.00000000E-02  5.00000000E-02  2.50000000E-01
                       5.00000000E-02  1.50000000E-01  2.50000000E-01
                       1.50000000E-01  1.50000000E-01  2.50000000E-01
                       2.50000000E-01  1.50000000E-01  2.50000000E-01
                       3.50000000E-01  1.50000000E-01  2.50000000E-01
                       4.50000000E-01  1.50000000E-01  2.50000000E-01
                      -4.50000000E-01  1.50000000E-01  2.50000000E-01
                      -3.50000000E-01  1.50000000E-01  2.50000000E-01
                      -2.50000000E-01  1.50000000E-01  2.50000000E-01
                      -1.50000000E-01  1.50000000E-01  2.50000000E-01
                      -5.00000000E-02  1.50000000E-01  2.50000000E-01
                       5.00000000E-02  2.50000000E-01  2.50000000E-01
                       1.50000000E-01  2.50000000E-01  2.50000000E-01
                       2.50000000E-01  2.50000000E-01  2.50000000E-01
                       3.50000000E-01  2.50000000E-01  2.50000000E-01
                       4.50000000E-01  2.50000000E-01  2.50000000E-01
                      -4.50000000E-01  2.50000000E-01  2.50000000E-01
                      -3.50000000E-01  2.50000000E-01  2.50000000E-01
                      -2.50000000E-01  2.50000000E-01  2.50000000E-01
                      -1.50000000E-01  2.50000000E-01  2.50000000E-01
                      -5.00000000E-02  2.50000000E-01  2.50000000E-01
                       5.00000000E-02  3.50000000E-01  2.50000000E-01
                       1.50000000E-01  3.50000000E-01  2.50000000E-01
                       2.50000000E-01  3.50000000E-01  2.50000000E-01
                       3.50000000E-01  3.50000000E-01  2.50000000E-01
                       4.50000000E-01  3.50000000E-01  2.50000000E-01
                      -4.50000000E-01  3.50000000E-01  2.50000000E-01
                      -3.50000000E-01  3.50000000E-01  2.50000000E-01
                      -2.50000000E-01  3.50000000E-01  2.50000000E-01
                      -1.50000000E-01  3.50000000E-01  2.50000000E-01
                      -5.00000000E-02  3.50000000E-01  2.50000000E-01
                       5.00000000E-02  4.50000000E-01  2.50000000E-01
                       1.50000000E-01  4.50000000E-01  2.50000000E-01
                       2.50000000E-01  4.50000000E-01  2.50000000E-01
                       3.50000000E-01  4.50000000E-01  2.50000000E-01
                       4.50000000E-01  4.50000000E-01  2.50000000E-01
                      -4.50000000E-01  4.50000000E-01  2.50000000E-01
                      -3.50000000E-01  4.50000000E-01  2.50000000E-01
                      -2.50000000E-01  4.50000000E-01  2.50000000E-01
                      -1.50000000E-01  4.50000000E-01  2.50000000E-01
                      -5.00000000E-02  4.50000000E-01  2.50000000E-01
              kpt6     5.00000000E-02  5.00000000E-02  2.50000000E-01
                       1.50000000E-01  5.00000000E-02  2.50000000E-01
                       2.50000000E-01  5.00000000E-02  2.50000000E-01
                       3.50000000E-01  5.00000000E-02  2.50000000E-01
                       4.50000000E-01  5.00000000E-02  2.50000000E-01
                      -4.50000000E-01  5.00000000E-02  2.50000000E-01
                      -3.50000000E-01  5.00000000E-02  2.50000000E-01
                      -2.50000000E-01  5.00000000E-02  2.50000000E-01
                      -1.50000000E-01  5.00000000E-02  2.50000000E-01
                      -5.00000000E-02  5.00000000E-02  2.50000000E-01
                       5.00000000E-02  1.50000000E-01  2.50000000E-01
                       1.50000000E-01  1.50000000E-01  2.50000000E-01
                       2.50000000E-01  1.50000000E-01  2.50000000E-01
                       3.50000000E-01  1.50000000E-01  2.50000000E-01
                       4.50000000E-01  1.50000000E-01  2.50000000E-01
                      -4.50000000E-01  1.50000000E-01  2.50000000E-01
                      -3.50000000E-01  1.50000000E-01  2.50000000E-01
                      -2.50000000E-01  1.50000000E-01  2.50000000E-01
                      -1.50000000E-01  1.50000000E-01  2.50000000E-01
                      -5.00000000E-02  1.50000000E-01  2.50000000E-01
                       5.00000000E-02  2.50000000E-01  2.50000000E-01
                       1.50000000E-01  2.50000000E-01  2.50000000E-01
                       2.50000000E-01  2.50000000E-01  2.50000000E-01
                       3.50000000E-01  2.50000000E-01  2.50000000E-01
                       4.50000000E-01  2.50000000E-01  2.50000000E-01
                      -4.50000000E-01  2.50000000E-01  2.50000000E-01
                      -3.50000000E-01  2.50000000E-01  2.50000000E-01
                      -2.50000000E-01  2.50000000E-01  2.50000000E-01
                      -1.50000000E-01  2.50000000E-01  2.50000000E-01
                      -5.00000000E-02  2.50000000E-01  2.50000000E-01
                       5.00000000E-02  3.50000000E-01  2.50000000E-01
                       1.50000000E-01  3.50000000E-01  2.50000000E-01
                       2.50000000E-01  3.50000000E-01  2.50000000E-01
                       3.50000000E-01  3.50000000E-01  2.50000000E-01
                       4.50000000E-01  3.50000000E-01  2.50000000E-01
                      -4.50000000E-01  3.50000000E-01  2.50000000E-01
                      -3.50000000E-01  3.50000000E-01  2.50000000E-01
                      -2.50000000E-01  3.50000000E-01  2.50000000E-01
                      -1.50000000E-01  3.50000000E-01  2.50000000E-01
                      -5.00000000E-02  3.50000000E-01  2.50000000E-01
                       5.00000000E-02  4.50000000E-01  2.50000000E-01
                       1.50000000E-01  4.50000000E-01  2.50000000E-01
                       2.50000000E-01  4.50000000E-01  2.50000000E-01
                       3.50000000E-01  4.50000000E-01  2.50000000E-01
                       4.50000000E-01  4.50000000E-01  2.50000000E-01
                      -4.50000000E-01  4.50000000E-01  2.50000000E-01
                      -3.50000000E-01  4.50000000E-01  2.50000000E-01
                      -2.50000000E-01  4.50000000E-01  2.50000000E-01
                      -1.50000000E-01  4.50000000E-01  2.50000000E-01
                      -5.00000000E-02  4.50000000E-01  2.50000000E-01
                       outvar_i_n : Printing only first  50 k-points.
           kptopt1          1
           kptopt2          1
           kptopt3          2
           kptopt4          2
           kptopt5          2
           kptopt6          2
         kptrlatt       10    0    0      0   10    0      0    0    2
          kptrlen      7.76243168E+01
P           mkmem1          3
P           mkmem2          3
P           mkmem3         17
P           mkmem4         17
P           mkmem5         17
P           mkmem6         17
P          mkqmem1          3
P          mkqmem2          3
P          mkqmem3         17
P          mkqmem4         17
P          mkqmem5         17
P          mkqmem6         17
P          mk1mem1          3
P          mk1mem2          3
P          mk1mem3         17
P          mk1mem4         17
P          mk1mem5         17
P          mk1mem6         17
            natom          10
            nband1         83
            nband2        180
            nband3        180
            nband4        180
            nband5        180
            nband6        180
           nbdbuf1          0
           nbdbuf2          2
           nbdbuf3          2
           nbdbuf4          2
           nbdbuf5          2
           nbdbuf6          2
           ndtset           6
            ngfft          36      36     180
             nkpt1         15
             nkpt2         15
             nkpt3        100
             nkpt4        100
             nkpt5        100
             nkpt6        100
            nline1          4
            nline2          4
            nline3          4
            nline4          0
            nline5          0
            nline6          0
             nqpt1          0
             nqpt2          0
             nqpt3          0
             nqpt4          1
             nqpt5          1
             nqpt6          1
            nstep1        400
            nstep2        200
            nstep3        200
            nstep4          1
            nstep5          1
            nstep6          1
             nsym           8
           ntypat           3
              occ1     2.000000  2.000000  2.000000  2.000000  2.000000  2.000000
                       2.000000  2.000000  2.000000  2.000000  2.000000  2.000000
                       2.000000  2.000000  2.000000  2.000000  2.000000  2.000000
                       2.000000  2.000000  2.000000  2.000000  2.000000  2.000000
                       2.000000  2.000000  2.000000  2.000000  2.000000  2.000000
                       2.000000  2.000000  2.000000  2.000000  2.000000  2.000000
                       2.000000  2.000000  2.000000  2.000000  2.000000  2.000000
                       2.000000  2.000000  2.000000  2.000000  2.000000  2.000000
                       2.000000  2.000000  2.000000  2.000000  2.000000  2.000000
                       2.000000  2.000000  2.000000  2.000000  2.000000  2.000000
                       2.000000  2.000000  2.000000  2.000000  2.000000  2.000000
                       2.000000  2.000000  2.000000  2.000000  2.000000  2.000000
                       2.000000  2.000000  2.000000  2.000000  2.000000  2.000000
                       2.000000  2.000000  2.000000  0.000000  0.000000
              occ4     2.000000  2.000000  2.000000  2.000000  2.000000  2.000000
                       2.000000  2.000000  2.000000  2.000000  2.000000  2.000000
                       2.000000  2.000000  2.000000  2.000000  2.000000  2.000000
                       2.000000  2.000000  2.000000  2.000000  2.000000  2.000000
                       2.000000  2.000000  2.000000  2.000000  2.000000  2.000000
                       2.000000  2.000000  2.000000  2.000000  2.000000  2.000000
                       2.000000  2.000000  2.000000  2.000000  2.000000  2.000000
                       2.000000  2.000000  2.000000  2.000000  2.000000  2.000000
                       2.000000  2.000000  2.000000  2.000000  2.000000  2.000000
                       2.000000  2.000000  2.000000  2.000000  2.000000  2.000000
                       2.000000  2.000000  2.000000  2.000000  2.000000  2.000000
                       2.000000  2.000000  2.000000  2.000000  2.000000  2.000000
                       2.000000  2.000000  2.000000  2.000000  2.000000  2.000000
                       2.000000  2.000000  2.000000  0.000000  0.000000  0.000000
                       0.000000  0.000000  0.000000  0.000000  0.000000  0.000000
                       0.000000  0.000000  0.000000  0.000000  0.000000  0.000000
                       0.000000  0.000000  0.000000  0.000000  0.000000  0.000000
                       0.000000  0.000000  0.000000  0.000000  0.000000  0.000000
                       0.000000  0.000000  0.000000  0.000000  0.000000  0.000000
                       0.000000  0.000000  0.000000  0.000000  0.000000  0.000000
                       0.000000  0.000000  0.000000  0.000000  0.000000  0.000000
                       0.000000  0.000000  0.000000  0.000000  0.000000  0.000000
                       0.000000  0.000000  0.000000  0.000000  0.000000  0.000000
                       0.000000  0.000000  0.000000  0.000000  0.000000  0.000000
                       0.000000  0.000000  0.000000  0.000000  0.000000  0.000000
                       0.000000  0.000000  0.000000  0.000000  0.000000  0.000000
                       0.000000  0.000000  0.000000  0.000000  0.000000  0.000000
                       0.000000  0.000000  0.000000  0.000000  0.000000  0.000000
                       0.000000  0.000000  0.000000  0.000000  0.000000  0.000000
                       0.000000  0.000000  0.000000  0.000000  0.000000  0.000000
              occ5     2.000000  2.000000  2.000000  2.000000  2.000000  2.000000
                       2.000000  2.000000  2.000000  2.000000  2.000000  2.000000
                       2.000000  2.000000  2.000000  2.000000  2.000000  2.000000
                       2.000000  2.000000  2.000000  2.000000  2.000000  2.000000
                       2.000000  2.000000  2.000000  2.000000  2.000000  2.000000
                       2.000000  2.000000  2.000000  2.000000  2.000000  2.000000
                       2.000000  2.000000  2.000000  2.000000  2.000000  2.000000
                       2.000000  2.000000  2.000000  2.000000  2.000000  2.000000
                       2.000000  2.000000  2.000000  2.000000  2.000000  2.000000
                       2.000000  2.000000  2.000000  2.000000  2.000000  2.000000
                       2.000000  2.000000  2.000000  2.000000  2.000000  2.000000
                       2.000000  2.000000  2.000000  2.000000  2.000000  2.000000
                       2.000000  2.000000  2.000000  2.000000  2.000000  2.000000
                       2.000000  2.000000  2.000000  0.000000  0.000000  0.000000
                       0.000000  0.000000  0.000000  0.000000  0.000000  0.000000
                       0.000000  0.000000  0.000000  0.000000  0.000000  0.000000
                       0.000000  0.000000  0.000000  0.000000  0.000000  0.000000
                       0.000000  0.000000  0.000000  0.000000  0.000000  0.000000
                       0.000000  0.000000  0.000000  0.000000  0.000000  0.000000
                       0.000000  0.000000  0.000000  0.000000  0.000000  0.000000
                       0.000000  0.000000  0.000000  0.000000  0.000000  0.000000
                       0.000000  0.000000  0.000000  0.000000  0.000000  0.000000
                       0.000000  0.000000  0.000000  0.000000  0.000000  0.000000
                       0.000000  0.000000  0.000000  0.000000  0.000000  0.000000
                       0.000000  0.000000  0.000000  0.000000  0.000000  0.000000
                       0.000000  0.000000  0.000000  0.000000  0.000000  0.000000
                       0.000000  0.000000  0.000000  0.000000  0.000000  0.000000
                       0.000000  0.000000  0.000000  0.000000  0.000000  0.000000
                       0.000000  0.000000  0.000000  0.000000  0.000000  0.000000
                       0.000000  0.000000  0.000000  0.000000  0.000000  0.000000
              occ6     2.000000  2.000000  2.000000  2.000000  2.000000  2.000000
                       2.000000  2.000000  2.000000  2.000000  2.000000  2.000000
                       2.000000  2.000000  2.000000  2.000000  2.000000  2.000000
                       2.000000  2.000000  2.000000  2.000000  2.000000  2.000000
                       2.000000  2.000000  2.000000  2.000000  2.000000  2.000000
                       2.000000  2.000000  2.000000  2.000000  2.000000  2.000000
                       2.000000  2.000000  2.000000  2.000000  2.000000  2.000000
                       2.000000  2.000000  2.000000  2.000000  2.000000  2.000000
                       2.000000  2.000000  2.000000  2.000000  2.000000  2.000000
                       2.000000  2.000000  2.000000  2.000000  2.000000  2.000000
                       2.000000  2.000000  2.000000  2.000000  2.000000  2.000000
                       2.000000  2.000000  2.000000  2.000000  2.000000  2.000000
                       2.000000  2.000000  2.000000  2.000000  2.000000  2.000000
                       2.000000  2.000000  2.000000  0.000000  0.000000  0.000000
                       0.000000  0.000000  0.000000  0.000000  0.000000  0.000000
                       0.000000  0.000000  0.000000  0.000000  0.000000  0.000000
                       0.000000  0.000000  0.000000  0.000000  0.000000  0.000000
                       0.000000  0.000000  0.000000  0.000000  0.000000  0.000000
                       0.000000  0.000000  0.000000  0.000000  0.000000  0.000000
                       0.000000  0.000000  0.000000  0.000000  0.000000  0.000000
                       0.000000  0.000000  0.000000  0.000000  0.000000  0.000000
                       0.000000  0.000000  0.000000  0.000000  0.000000  0.000000
                       0.000000  0.000000  0.000000  0.000000  0.000000  0.000000
                       0.000000  0.000000  0.000000  0.000000  0.000000  0.000000
                       0.000000  0.000000  0.000000  0.000000  0.000000  0.000000
                       0.000000  0.000000  0.000000  0.000000  0.000000  0.000000
                       0.000000  0.000000  0.000000  0.000000  0.000000  0.000000
                       0.000000  0.000000  0.000000  0.000000  0.000000  0.000000
                       0.000000  0.000000  0.000000  0.000000  0.000000  0.000000
                       0.000000  0.000000  0.000000  0.000000  0.000000  0.000000
        optdriver1          0
        optdriver2          0
        optdriver3          0
        optdriver4          1
        optdriver5          1
        optdriver6          1
            prtwf1          1
            prtwf2          1
            prtwf3          1
            prtwf4          3
            prtwf5          3
            prtwf6          3
            rfdir1          0       0       0
            rfdir2          0       0       0
            rfdir3          0       0       0
            rfdir4          1       0       0
            rfdir5          0       1       0
            rfdir6          0       0       1
           rfelfd1          0
           rfelfd2          0
           rfelfd3          0
           rfelfd4          2
           rfelfd5          2
           rfelfd6          2
            rprim      1.0000000000E+00  0.0000000000E+00  0.0000000000E+00
                       0.0000000000E+00  1.0000000000E+00  0.0000000000E+00
                       0.0000000000E+00  0.0000000000E+00  5.1025955632E+00
           shiftk      5.00000000E-01  5.00000000E-01  5.00000000E-01
          spgroup          99
           symrel      1  0  0   0  1  0   0  0  1       1  0  0   0 -1  0   0  0  1
                      -1  0  0   0 -1  0   0  0  1      -1  0  0   0  1  0   0  0  1
                       0  1  0   1  0  0   0  0  1       0  1  0  -1  0  0   0  0  1
                       0 -1  0  -1  0  0   0  0  1       0 -1  0   1  0  0   0  0  1
            tnons      0.0000000  0.0000000  0.0000000     0.0000000 -0.0000000  0.0000000
                      -0.0000000 -0.0000000  0.0000000    -0.0000000  0.0000000  0.0000000
                       0.5000000  0.5000000  0.0000000     0.5000000  0.5000000  0.0000000
                       0.5000000  0.5000000  0.0000000     0.5000000  0.5000000  0.0000000
           tolwfr      1.00000000E-20
            typat      1  1  1  2  2  2  2  2  3  3
           vdw_xc           5
              wtk1       0.04000    0.08000    0.08000    0.08000    0.08000    0.04000
                         0.08000    0.08000    0.08000    0.04000    0.08000    0.08000
                         0.04000    0.08000    0.04000
              wtk2       0.04000    0.08000    0.08000    0.08000    0.08000    0.04000
                         0.08000    0.08000    0.08000    0.04000    0.08000    0.08000
                         0.04000    0.08000    0.04000
              wtk3       0.01000    0.01000    0.01000    0.01000    0.01000    0.01000
                         0.01000    0.01000    0.01000    0.01000    0.01000    0.01000
                         0.01000    0.01000    0.01000    0.01000    0.01000    0.01000
                         0.01000    0.01000    0.01000    0.01000    0.01000    0.01000
                         0.01000    0.01000    0.01000    0.01000    0.01000    0.01000
                         0.01000    0.01000    0.01000    0.01000    0.01000    0.01000
                         0.01000    0.01000    0.01000    0.01000    0.01000    0.01000
                         0.01000    0.01000    0.01000    0.01000    0.01000    0.01000
                         0.01000    0.01000
              wtk4       0.01000    0.01000    0.01000    0.01000    0.01000    0.01000
                         0.01000    0.01000    0.01000    0.01000    0.01000    0.01000
                         0.01000    0.01000    0.01000    0.01000    0.01000    0.01000
                         0.01000    0.01000    0.01000    0.01000    0.01000    0.01000
                         0.01000    0.01000    0.01000    0.01000    0.01000    0.01000
                         0.01000    0.01000    0.01000    0.01000    0.01000    0.01000
                         0.01000    0.01000    0.01000    0.01000    0.01000    0.01000
                         0.01000    0.01000    0.01000    0.01000    0.01000    0.01000
                         0.01000    0.01000
              wtk5       0.01000    0.01000    0.01000    0.01000    0.01000    0.01000
                         0.01000    0.01000    0.01000    0.01000    0.01000    0.01000
                         0.01000    0.01000    0.01000    0.01000    0.01000    0.01000
                         0.01000    0.01000    0.01000    0.01000    0.01000    0.01000
                         0.01000    0.01000    0.01000    0.01000    0.01000    0.01000
                         0.01000    0.01000    0.01000    0.01000    0.01000    0.01000
                         0.01000    0.01000    0.01000    0.01000    0.01000    0.01000
                         0.01000    0.01000    0.01000    0.01000    0.01000    0.01000
                         0.01000    0.01000
              wtk6       0.01000    0.01000    0.01000    0.01000    0.01000    0.01000
                         0.01000    0.01000    0.01000    0.01000    0.01000    0.01000
                         0.01000    0.01000    0.01000    0.01000    0.01000    0.01000
                         0.01000    0.01000    0.01000    0.01000    0.01000    0.01000
                         0.01000    0.01000    0.01000    0.01000    0.01000    0.01000
                         0.01000    0.01000    0.01000    0.01000    0.01000    0.01000
                         0.01000    0.01000    0.01000    0.01000    0.01000    0.01000
                         0.01000    0.01000    0.01000    0.01000    0.01000    0.01000
                         0.01000    0.01000
                       outvars : Printing only first  50 k-points.
           xangst      2.0538509643E+00  0.0000000000E+00  4.6664585258E+00
                       0.0000000000E+00  2.0538509643E+00  7.4160884693E+00
                       2.0538509643E+00  0.0000000000E+00  1.0102188830E+01
                       0.0000000000E+00  2.0538509643E+00  4.6982337974E+00
                       2.0538509643E+00  0.0000000000E+00  7.3843341577E+00
                       0.0000000000E+00  2.0538509643E+00  1.0133964101E+01
                       2.0538509643E+00  0.0000000000E+00  1.3303463595E+01
                       0.0000000000E+00  2.0538509643E+00  1.6293483109E+01
                       2.0538509643E+00  2.0538509643E+00  1.4798473352E+01
                       0.0000000000E+00  0.0000000000E+00  1.4798473352E+01
            xcart      3.8812158402E+00  0.0000000000E+00  8.8183286243E+00
                       0.0000000000E+00  3.8812158402E+00  1.4014376184E+01
                       3.8812158402E+00  0.0000000000E+00  1.9090370231E+01
                       0.0000000000E+00  3.8812158402E+00  8.8783751853E+00
                       3.8812158402E+00  0.0000000000E+00  1.3954369232E+01
                       0.0000000000E+00  3.8812158402E+00  1.9150416792E+01
                       3.8812158402E+00  0.0000000000E+00  2.5139902814E+01
                       0.0000000000E+00  3.8812158402E+00  3.0790220828E+01
                       3.8812158402E+00  3.8812158402E+00  2.7965061821E+01
                       0.0000000000E+00  0.0000000000E+00  2.7965061821E+01
             xred      5.0000000000E-01  0.0000000000E+00  2.2263700000E-01
                       0.0000000000E+00  5.0000000000E-01  3.5382200000E-01
                       5.0000000000E-01  0.0000000000E+00  4.8197600000E-01
                       0.0000000000E+00  5.0000000000E-01  2.2415300000E-01
                       5.0000000000E-01  0.0000000000E+00  3.5230700000E-01
                       0.0000000000E+00  5.0000000000E-01  4.8349200000E-01
                       5.0000000000E-01  0.0000000000E+00  6.3470900000E-01
                       0.0000000000E+00  5.0000000000E-01  7.7736300000E-01
                       5.0000000000E-01  5.0000000000E-01  7.0603600000E-01
                       0.0000000000E+00  0.0000000000E+00  7.0603600000E-01
            znucl       50.00000   34.00000   30.00000

================================================================================

 chkinp: Checking input parameters for consistency, jdtset=   1.

 chkinp: Checking input parameters for consistency, jdtset=   2.

 chkinp: Checking input parameters for consistency, jdtset=   3.

 chkinp: Checking input parameters for consistency, jdtset=   4.

 chkinp: Checking input parameters for consistency, jdtset=   5.

 chkinp: Checking input parameters for consistency, jdtset=   6.

================================================================================
== DATASET  1 ==================================================================
-   mpi_nproc: 6, omp_nthreads: -1 (-1 if OMP is not activated)


--- !DatasetInfo
iteration_state: {dtset: 1, }
dimensions: {natom: 10, nkpt: 15, mband: 83, nsppol: 1, nspinor: 1, nspden: 1, mpw: 12196, }
cutoff_energies: {ecut:  22.5, pawecutdg:  -1.0, }
electrons: {nelect:   1.62000000E+02, charge:   0.00000000E+00, occopt:   1.00000000E+00, tsmear:   1.00000000E-02, }
meta: {optdriver: 0, ionmov: 0, optcell: 0, iscf: 7, paral_kgb: 0, }
...

 Exchange-correlation functional for the present dataset will be:
  GGA: Perdew-Burke-Ernzerhof functional - ixc=11
 Citation for XC functional:
  J.P.Perdew, K.Burke, M.Ernzerhof, PRL 77, 3865 (1996)

 Real(R)+Recip(G) space primitive vectors, cartesian coordinates (Bohr,Bohr^-1):
 R(1)=  7.7624317  0.0000000  0.0000000  G(1)=  0.1288256  0.0000000  0.0000000
 R(2)=  0.0000000  7.7624317  0.0000000  G(2)=  0.0000000  0.1288256  0.0000000
 R(3)=  0.0000000  0.0000000 39.6085495  G(3)=  0.0000000  0.0000000  0.0252471
 Unit cell volume ucvol=  2.3866268E+03 bohr^3
 Angles (23,13,12)=  9.00000000E+01  9.00000000E+01  9.00000000E+01 degrees

 getcut: wavevector=  0.0000  0.0000  0.0000  ngfft=  36  36 180
         ecut(hartree)=     22.500   => boxcut(ratio)=   2.12827

--- Pseudopotential description ------------------------------------------------
- pspini: atom type   1  psp file is ../../../Psps_for_tests/ATOMICDATA_NC/Sn.psp8
- pspatm: opening atomic psp file    ../../../Psps_for_tests/ATOMICDATA_NC/Sn.psp8
- Sn    ONCVPSP  r_core=  2.27  2.62  1.86
- 50.00000  14.00000    150810                znucl, zion, pspdat
    8   11    2    4       600   0.00000      pspcod,pspxc,lmax,lloc,mmax,r2well
    5.99000000000000    6.50000000000000    0.00000000000000   rchrg,fchrg,qchrg
     nproj     2     2     2
     extension_switch     1
  pspatm : epsatm=   32.65190642
         --- l  ekb(1:nproj) -->
             0    5.462393    0.682281
             1    4.443814    0.825686
             2   -5.382195   -1.704077
 pspatm: atomic psp has been read  and splines computed

- pspini: atom type   2  psp file is ../../../Psps_for_tests/ATOMICDATA_NC/Se.psp8
- pspatm: opening atomic psp file    ../../../Psps_for_tests/ATOMICDATA_NC/Se.psp8
- Se    ONCVPSP  r_core=  1.82  1.50  1.91
- 34.00000  16.00000    150729                znucl, zion, pspdat
    8   11    2    4       600   0.00000      pspcod,pspxc,lmax,lloc,mmax,r2well
    5.99000000000000    5.00000000000000    0.00000000000000   rchrg,fchrg,qchrg
     nproj     2     2     2
     extension_switch     1
  pspatm : epsatm=   29.53325930
         --- l  ekb(1:nproj) -->
             0    8.612261    0.939919
             1    6.984962    1.281898
             2   -9.322521   -3.856218
 pspatm: atomic psp has been read  and splines computed

- pspini: atom type   3  psp file is ../../../Psps_for_tests/ATOMICDATA_NC/Zn.psp8
- pspatm: opening atomic psp file    ../../../Psps_for_tests/ATOMICDATA_NC/Zn.psp8
- Zn    ONCVPSP  r_core=  1.36  1.66  1.85
- 30.00000  20.00000    161102                znucl, zion, pspdat
    8   11    2    4       600   0.00000      pspcod,pspxc,lmax,lloc,mmax,r2well
    5.99000000000000    2.50000000000000    0.00000000000000   rchrg,fchrg,qchrg
     nproj     2     2     2
     extension_switch     1
  pspatm : epsatm=   26.67245340
         --- l  ekb(1:nproj) -->
             0    2.404235   -1.533451
             1   -4.677427   -1.530630
             2   -7.000316   -2.622858
 pspatm: atomic psp has been read  and splines computed

   4.84326415E+04                                ecore*ucvol(ha*bohr**3)
--------------------------------------------------------------------------------

_setup2: Arith. and geom. avg. npw (full set) are   12166.120   12166.112

================================================================================

--- !BeginCycle
iteration_state: {dtset: 1, }
solver: {iscf: 7, nstep: 400, nline: 4, wfoptalg: 0, }
tolerances: {tolwfr: 1.00E-20, }
...

     iter   Etot(hartree)      deltaE(h)  residm     vres2
 ETOT  1  -1107.2215855436    -1.107E+03 8.048E-01 7.301E+06
 ETOT  2   503.43656390374     1.611E+03 5.359E-01 1.530E+08
 ETOT  3  -987.24529592874    -1.491E+03 1.751E+00 1.985E+07
 ETOT  4  -1243.4171010698    -2.562E+02 5.215E-01 2.538E+05
 ETOT  5  -1252.1886390314    -8.772E+00 6.182E-02 1.991E+04
 ETOT  6  -1252.3658293834    -1.772E-01 2.179E-02 4.900E+04
 ETOT  7  -1250.6666528984     1.699E+00 2.736E-02 2.573E+05
 ETOT  8  -1251.2886752744    -6.220E-01 3.462E-03 1.977E+05
 ETOT  9  -1252.2168212572    -9.281E-01 6.312E-04 1.345E+05
 ETOT 10  -1253.5167033354    -1.300E+00 1.145E-02 4.376E+04
 ETOT 11  -1253.7089921901    -1.923E-01 2.739E-03 2.659E+04
 ETOT 12  -1253.9929705707    -2.840E-01 9.734E-03 4.615E+02
 ETOT 13  -1253.9893463485     3.624E-03 9.623E-04 1.078E+03
 ETOT 14  -1253.9939998322    -4.653E-03 1.032E-03 6.042E+02
 ETOT 15  -1253.9956814910    -1.682E-03 2.617E-04 3.992E+02
 ETOT 16  -1253.9982630344    -2.582E-03 5.866E-04 6.753E+01
 ETOT 17  -1253.9987444853    -4.815E-04 1.970E-04 1.841E+01
 ETOT 18  -1253.9988169473    -7.246E-05 2.955E-04 8.735E+00
 ETOT 19  -1253.9988434883    -2.654E-05 1.121E-04 4.372E+00
 ETOT 20  -1253.9988646744    -2.119E-05 9.091E-05 9.069E-01
 ETOT 21  -1253.9988650248    -3.505E-07 8.648E-05 8.410E-01
 ETOT 22  -1253.9988632067     1.818E-06 1.033E-04 8.149E-01
 ETOT 23  -1253.9988671133    -3.907E-06 1.445E-04 2.007E-01
 ETOT 24  -1253.9988677137    -6.004E-07 2.464E-04 8.444E-02
 ETOT 25  -1253.9988684867    -7.730E-07 5.675E-04 1.009E-02
 ETOT 26  -1253.9988685621    -7.539E-08 7.718E-04 3.809E-03
 ETOT 27  -1253.9988685764    -1.427E-08 1.167E-03 1.679E-03
 ETOT 28  -1253.9988685964    -2.003E-08 9.684E-04 1.033E-04
 ETOT 29  -1253.9988685978    -1.314E-09 7.640E-04 1.480E-05
 ETOT 30  -1253.9988685976     1.230E-10 4.572E-04 1.796E-06
 ETOT 31  -1253.9988685979    -3.060E-10 2.625E-04 2.808E-07
 ETOT 32  -1253.9988685981    -1.571E-10 1.283E-04 7.006E-08
 ETOT 33  -1253.9988685983    -2.419E-10 6.197E-05 1.987E-08
 ETOT 34  -1253.9988685981     2.333E-10 6.263E-05 2.863E-09
 ETOT 35  -1253.9988685981     2.296E-11 2.339E-05 3.731E-09
 ETOT 36  -1253.9988685979     2.060E-10 4.816E-05 1.194E-10
 ETOT 37  -1253.9988685983    -4.125E-10 1.729E-05 1.396E-10
 ETOT 38  -1253.9988685981     1.523E-10 3.546E-05 4.708E-11
 ETOT 39  -1253.9988685981     3.888E-11 1.231E-05 5.889E-12
 ETOT 40  -1253.9988685978     2.558E-10 2.513E-05 2.262E-12
 ETOT 41  -1253.9988685980    -1.460E-10 8.501E-06 2.932E-12
 ETOT 42  -1253.9988685981    -1.096E-10 1.728E-05 2.366E-13
 ETOT 43  -1253.9988685982    -9.550E-11 5.740E-06 5.254E-14
 ETOT 44  -1253.9988685981     1.337E-10 1.163E-05 3.415E-14
 ETOT 45  -1253.9988685983    -2.083E-10 3.812E-06 5.605E-15
 ETOT 46  -1253.9988685981     1.505E-10 7.697E-06 3.084E-15
 ETOT 47  -1253.9988685981     2.183E-11 3.008E-06 3.915E-16
 ETOT 48  -1253.9988685981    -5.571E-11 5.039E-06 2.404E-16
 ETOT 49  -1253.9988685981     3.706E-11 3.016E-06 3.227E-16
 ETOT 50  -1253.9988685981    -1.410E-11 3.272E-06 2.301E-16
 ETOT 51  -1253.9988685981     3.365E-11 3.020E-06 2.223E-16
 ETOT 52  -1253.9988685981    -2.524E-11 2.113E-06 2.182E-16
 ETOT 53  -1253.9988685981    -1.069E-11 3.020E-06 1.889E-16
 ETOT 54  -1253.9988685982    -2.160E-11 1.520E-06 1.604E-16
 ETOT 55  -1253.9988685981     1.478E-11 3.014E-06 1.365E-16
 ETOT 56  -1253.9988685981     2.956E-12 1.416E-06 1.207E-16
 ETOT 57  -1253.9988685981     4.775E-12 3.004E-06 1.153E-16
 ETOT 58  -1253.9988685981     2.228E-11 1.318E-06 8.295E-17
 ETOT 59  -1253.9988685981    -1.114E-11 2.989E-06 7.046E-17
 ETOT 60  -1253.9988685981     2.956E-12 1.225E-06 6.364E-17
 ETOT 61  -1253.9988685981     2.046E-11 2.969E-06 5.770E-17
 ETOT 62  -1253.9988685981    -2.728E-12 1.138E-06 5.379E-17
 ETOT 63  -1253.9988685981     5.912E-12 2.944E-06 4.805E-17
 ETOT 64  -1253.9988685981     4.547E-13 1.057E-06 4.456E-17
 ETOT 65  -1253.9988685981    -2.956E-12 2.915E-06 4.222E-17
 ETOT 66  -1253.9988685981     0.000E+00 1.038E-06 3.852E-17
 ETOT 67  -1253.9988685981     4.547E-12 2.881E-06 3.561E-17
 ETOT 68  -1253.9988685981     5.912E-12 1.024E-06 3.304E-17
 ETOT 69  -1253.9988685981     2.274E-13 2.842E-06 3.145E-17
 ETOT 70  -1253.9988685981    -3.638E-12 1.009E-06 2.826E-17
 ETOT 71  -1253.9988685981     3.183E-12 2.799E-06 2.651E-17
 ETOT 72  -1253.9988685981    -2.728E-12 9.931E-07 2.521E-17
 ETOT 73  -1253.9988685981     9.095E-13 2.753E-06 2.378E-17
 ETOT 74  -1253.9988685981     4.547E-13 9.756E-07 2.163E-17
 ETOT 75  -1253.9988685981     0.000E+00 2.702E-06 2.003E-17
 ETOT 76  -1253.9988685981    -4.547E-12 9.570E-07 1.912E-17
 ETOT 77  -1253.9988685981    -1.137E-12 2.648E-06 1.797E-17
 ETOT 78  -1253.9988685981     2.501E-12 9.373E-07 1.719E-17
 ETOT 79  -1253.9988685981     5.912E-12 2.591E-06 1.564E-17
 ETOT 80  -1253.9988685981     1.364E-12 9.166E-07 1.468E-17
 ETOT 81  -1253.9988685981    -1.364E-12 2.532E-06 1.462E-17
 ETOT 82  -1253.9988685981    -2.274E-12 8.950E-07 1.415E-17
 ETOT 83  -1253.9988685981     6.366E-12 2.469E-06 1.286E-17
 ETOT 84  -1253.9988685981     2.274E-12 8.727E-07 1.212E-17
 ETOT 85  -1253.9988685981     2.501E-12 2.405E-06 1.131E-17
 ETOT 86  -1253.9988685981    -9.095E-13 8.497E-07 1.078E-17
 ETOT 87  -1253.9988685981    -6.821E-13 2.339E-06 1.030E-17
 ETOT 88  -1253.9988685981     3.865E-12 8.262E-07 1.022E-17
 ETOT 89  -1253.9988685981    -6.821E-13 2.271E-06 9.127E-18
 ETOT 90  -1253.9988685981     4.547E-12 8.022E-07 9.449E-18
 ETOT 91  -1253.9988685981    -4.547E-13 2.202E-06 9.155E-18
 ETOT 92  -1253.9988685981     1.364E-12 7.778E-07 8.325E-18
 ETOT 93  -1253.9988685981    -1.592E-12 2.132E-06 7.884E-18
 ETOT 94  -1253.9988685981    -2.728E-12 7.532E-07 8.368E-18
 ETOT 95  -1253.9988685981    -1.592E-12 2.062E-06 7.512E-18
 ETOT 96  -1253.9988685981    -1.137E-12 7.284E-07 6.838E-18
 ETOT 97  -1253.9988685981    -1.364E-12 1.991E-06 6.674E-18
 ETOT 98  -1253.9988685981    -4.547E-13 7.036E-07 6.841E-18
 ETOT 99  -1253.9988685981    -6.821E-13 1.921E-06 6.860E-18
 ETOT  100  -1253.9988685981    -2.046E-12 6.787E-07 6.526E-18
 ETOT  101  -1253.9988685981    -3.865E-12 1.850E-06 5.809E-18
 ETOT  102  -1253.9988685981    -2.728E-12 6.540E-07 6.253E-18
 ETOT  103  -1253.9988685981    -2.046E-12 1.780E-06 5.646E-18
 ETOT  104  -1253.9988685981    -9.095E-13 6.294E-07 5.365E-18
 ETOT  105  -1253.9988685981    -2.046E-12 1.710E-06 5.362E-18
 ETOT  106  -1253.9988685981     2.274E-13 6.051E-07 5.111E-18
 ETOT  107  -1253.9988685981    -2.274E-13 1.641E-06 5.375E-18
 ETOT  108  -1253.9988685981     0.000E+00 5.811E-07 5.732E-18
 ETOT  109  -1253.9988685981     3.865E-12 1.574E-06 5.969E-18
 ETOT  110  -1253.9988685981    -1.364E-12 5.574E-07 5.591E-18
 ETOT  111  -1253.9988685981     2.956E-12 1.507E-06 5.811E-18
 ETOT  112  -1253.9988685981    -2.956E-12 5.341E-07 4.583E-18
 ETOT  113  -1253.9988685981    -4.547E-13 1.442E-06 5.036E-18
 ETOT  114  -1253.9988685981     1.592E-12 5.113E-07 4.413E-18
 ETOT  115  -1253.9988685981    -1.137E-12 1.378E-06 4.656E-18
 ETOT  116  -1253.9988685981    -9.095E-13 4.890E-07 4.811E-18
 ETOT  117  -1253.9988685981    -6.821E-13 1.316E-06 4.085E-18
 ETOT  118  -1253.9988685981    -1.592E-12 4.673E-07 3.700E-18
 ETOT  119  -1253.9988685981     2.274E-12 1.255E-06 4.757E-18
 ETOT  120  -1253.9988685981     0.000E+00 4.460E-07 4.480E-18
 ETOT  121  -1253.9988685981     4.547E-13 1.196E-06 5.081E-18
 ETOT  122  -1253.9988685981    -1.364E-12 4.254E-07 4.344E-18
 ETOT  123  -1253.9988685981    -2.274E-13 1.139E-06 4.380E-18
 ETOT  124  -1253.9988685981     9.095E-13 4.054E-07 4.539E-18
 ETOT  125  -1253.9988685981    -4.547E-13 1.084E-06 3.749E-18
 ETOT  126  -1253.9988685981     9.095E-13 3.860E-07 3.893E-18
 ETOT  127  -1253.9988685981     3.638E-12 1.031E-06 4.059E-18
 ETOT  128  -1253.9988685981     4.547E-13 3.673E-07 3.638E-18
 ETOT  129  -1253.9988685981    -2.274E-13 9.791E-07 4.269E-18
 ETOT  130  -1253.9988685981    -1.819E-12 3.492E-07 3.848E-18
 ETOT  131  -1253.9988685981     0.000E+00 9.294E-07 4.471E-18
 ETOT  132  -1253.9988685981    -6.821E-13 3.317E-07 3.785E-18
 ETOT  133  -1253.9988685981    -4.547E-13 8.817E-07 4.620E-18
 ETOT  134  -1253.9988685981     9.095E-13 3.149E-07 3.834E-18
 ETOT  135  -1253.9988685981    -1.137E-12 8.358E-07 4.332E-18
 ETOT  136  -1253.9988685981    -1.364E-12 2.987E-07 3.040E-18
 ETOT  137  -1253.9988685981    -2.274E-13 7.918E-07 3.424E-18
 ETOT  138  -1253.9988685981     6.821E-13 2.832E-07 4.193E-18
 ETOT  139  -1253.9988685981     1.592E-12 7.496E-07 3.405E-18
 ETOT  140  -1253.9988685981     2.274E-13 2.683E-07 4.271E-18
 ETOT  141  -1253.9988685981     0.000E+00 7.093E-07 4.573E-18
 ETOT  142  -1253.9988685981     0.000E+00 2.541E-07 4.341E-18
 ETOT  143  -1253.9988685981    -6.821E-13 6.707E-07 3.693E-18
 ETOT  144  -1253.9988685981    -4.547E-13 2.404E-07 4.329E-18
 ETOT  145  -1253.9988685981     0.000E+00 6.339E-07 3.548E-18
 ETOT  146  -1253.9988685981     4.547E-13 2.274E-07 3.894E-18
 ETOT  147  -1253.9988685981    -9.095E-13 5.988E-07 5.073E-18
 ETOT  148  -1253.9988685981     2.046E-12 2.150E-07 4.780E-18
 ETOT  149  -1253.9988685981    -2.274E-13 5.654E-07 4.091E-18
 ETOT  150  -1253.9988685981    -9.095E-13 2.031E-07 3.837E-18
 ETOT  151  -1253.9988685981     2.274E-12 5.335E-07 3.490E-18
 ETOT  152  -1253.9988685981     0.000E+00 1.918E-07 4.349E-18
 ETOT  153  -1253.9988685981     0.000E+00 5.033E-07 4.149E-18
 ETOT  154  -1253.9988685981     9.095E-13 1.810E-07 4.244E-18
 ETOT  155  -1253.9988685981     2.046E-12 4.745E-07 3.764E-18
 ETOT  156  -1253.9988685981     2.274E-13 1.708E-07 3.117E-18
 ETOT  157  -1253.9988685981    -2.274E-13 4.472E-07 4.034E-18
 ETOT  158  -1253.9988685981     6.821E-13 1.611E-07 3.593E-18
 ETOT  159  -1253.9988685981     2.274E-13 4.213E-07 3.779E-18
 ETOT  160  -1253.9988685981    -2.046E-12 1.518E-07 4.309E-18
 ETOT  161  -1253.9988685981     0.000E+00 3.968E-07 3.470E-18
 ETOT  162  -1253.9988685981    -9.095E-13 1.431E-07 4.719E-18
 ETOT  163  -1253.9988685981    -9.095E-13 3.735E-07 3.467E-18
 ETOT  164  -1253.9988685981     1.364E-12 1.348E-07 3.648E-18
 ETOT  165  -1253.9988685981     6.821E-13 3.515E-07 3.987E-18
 ETOT  166  -1253.9988685981     1.592E-12 1.269E-07 4.368E-18
 ETOT  167  -1253.9988685981     9.095E-13 3.307E-07 3.936E-18
 ETOT  168  -1253.9988685981    -6.821E-13 1.194E-07 3.901E-18
 ETOT  169  -1253.9988685981    -6.821E-13 3.110E-07 3.630E-18
 ETOT  170  -1253.9988685981     2.274E-12 1.124E-07 4.425E-18
 ETOT  171  -1253.9988685981     0.000E+00 2.924E-07 4.974E-18
 ETOT  172  -1253.9988685981     4.547E-13 1.057E-07 4.477E-18
 ETOT  173  -1253.9988685981    -1.819E-12 2.748E-07 3.599E-18
 ETOT  174  -1253.9988685981     2.046E-12 9.941E-08 3.857E-18
 ETOT  175  -1253.9988685981     4.547E-13 2.582E-07 3.843E-18
 ETOT  176  -1253.9988685981    -1.592E-12 9.346E-08 4.647E-18
 ETOT  177  -1253.9988685981     1.137E-12 2.426E-07 3.396E-18
 ETOT  178  -1253.9988685981    -2.046E-12 8.783E-08 3.973E-18
 ETOT  179  -1253.9988685981    -2.274E-12 2.278E-07 4.201E-18
 ETOT  180  -1253.9988685981     5.230E-12 8.253E-08 3.602E-18
 ETOT  181  -1253.9988685981    -2.956E-12 2.139E-07 4.151E-18
 ETOT  182  -1253.9988685981    -1.364E-12 7.753E-08 3.800E-18
 ETOT  183  -1253.9988685981     4.547E-13 2.008E-07 4.956E-18
 ETOT  184  -1253.9988685981     4.547E-13 7.281E-08 3.728E-18
 ETOT  185  -1253.9988685981     4.547E-13 1.885E-07 3.713E-18
 ETOT  186  -1253.9988685981    -1.364E-12 6.837E-08 3.843E-18
 ETOT  187  -1253.9988685981    -9.095E-13 1.769E-07 4.057E-18
 ETOT  188  -1253.9988685981     1.364E-12 6.418E-08 4.301E-18
 ETOT  189  -1253.9988685981     0.000E+00 1.659E-07 3.514E-18
 ETOT  190  -1253.9988685981     1.137E-12 6.024E-08 4.132E-18
 ETOT  191  -1253.9988685981     1.137E-12 1.556E-07 3.842E-18
 ETOT  192  -1253.9988685981     9.095E-13 5.652E-08 5.078E-18
 ETOT  193  -1253.9988685981     0.000E+00 1.460E-07 4.223E-18
 ETOT  194  -1253.9988685981    -4.547E-13 5.303E-08 4.284E-18
 ETOT  195  -1253.9988685981     1.364E-12 1.369E-07 4.260E-18
 ETOT  196  -1253.9988685981    -2.274E-13 4.975E-08 4.147E-18
 ETOT  197  -1253.9988685981     6.821E-13 1.283E-07 3.931E-18
 ETOT  198  -1253.9988685981    -4.547E-13 4.666E-08 5.095E-18
 ETOT  199  -1253.9988685981    -4.547E-13 1.203E-07 3.723E-18
 ETOT  200  -1253.9988685981    -4.547E-13 4.375E-08 4.122E-18
 ETOT  201  -1253.9988685981     0.000E+00 1.127E-07 3.914E-18
 ETOT  202  -1253.9988685981     4.547E-13 4.102E-08 4.147E-18
 ETOT  203  -1253.9988685981    -4.547E-13 1.057E-07 4.285E-18
 ETOT  204  -1253.9988685981    -4.547E-13 3.845E-08 4.294E-18
 ETOT  205  -1253.9988685981     1.137E-12 9.900E-08 3.854E-18
 ETOT  206  -1253.9988685981    -1.137E-12 3.604E-08 3.886E-18
 ETOT  207  -1253.9988685981    -6.821E-13 9.275E-08 3.900E-18
 ETOT  208  -1253.9988685981     4.547E-13 3.378E-08 4.105E-18
 ETOT  209  -1253.9988685981     4.547E-13 8.689E-08 4.400E-18
 ETOT  210  -1253.9988685981     2.274E-13 3.165E-08 3.832E-18
 ETOT  211  -1253.9988685981    -2.046E-12 8.139E-08 3.752E-18
 ETOT  212  -1253.9988685981     1.819E-12 2.966E-08 3.322E-18
 ETOT  213  -1253.9988685981    -1.364E-12 7.623E-08 3.910E-18
 ETOT  214  -1253.9988685981     1.364E-12 2.779E-08 4.059E-18
 ETOT  215  -1253.9988685981    -9.095E-13 7.138E-08 4.665E-18
 ETOT  216  -1253.9988685981     1.819E-12 2.691E-08 4.026E-18
 ETOT  217  -1253.9988685981    -2.501E-12 6.684E-08 4.125E-18
 ETOT  218  -1253.9988685981    -1.137E-12 2.678E-08 4.048E-18
 ETOT  219  -1253.9988685981    -6.821E-13 6.258E-08 3.498E-18
 ETOT  220  -1253.9988685981     1.137E-12 2.664E-08 4.060E-18
 ETOT  221  -1253.9988685981     0.000E+00 5.859E-08 3.552E-18
 ETOT  222  -1253.9988685981     2.274E-13 2.651E-08 3.021E-18
 ETOT  223  -1253.9988685981     4.547E-13 5.485E-08 3.804E-18
 ETOT  224  -1253.9988685981    -1.819E-12 2.637E-08 3.583E-18
 ETOT  225  -1253.9988685981     9.095E-13 5.134E-08 3.237E-18
 ETOT  226  -1253.9988685981     0.000E+00 2.623E-08 3.708E-18
 ETOT  227  -1253.9988685981     9.095E-13 4.805E-08 3.558E-18
 ETOT  228  -1253.9988685981     1.592E-12 2.610E-08 3.879E-18
 ETOT  229  -1253.9988685981    -6.821E-13 4.497E-08 4.066E-18
 ETOT  230  -1253.9988685981    -1.364E-12 2.596E-08 3.496E-18
 ETOT  231  -1253.9988685981     0.000E+00 4.209E-08 3.916E-18
 ETOT  232  -1253.9988685981     0.000E+00 2.583E-08 3.872E-18
 ETOT  233  -1253.9988685981     2.274E-13 3.939E-08 3.383E-18
 ETOT  234  -1253.9988685981     9.095E-13 2.569E-08 3.866E-18
 ETOT  235  -1253.9988685981    -1.137E-12 3.685E-08 3.989E-18
 ETOT  236  -1253.9988685981     4.547E-13 2.555E-08 3.890E-18
 ETOT  237  -1253.9988685981     4.547E-13 3.493E-08 3.765E-18
 ETOT  238  -1253.9988685981     2.274E-13 2.542E-08 3.216E-18
 ETOT  239  -1253.9988685981     0.000E+00 3.476E-08 3.708E-18
 ETOT  240  -1253.9988685981    -1.137E-12 2.528E-08 3.584E-18
 ETOT  241  -1253.9988685981     2.274E-13 3.458E-08 3.000E-18
 ETOT  242  -1253.9988685981     0.000E+00 2.515E-08 3.533E-18
 ETOT  243  -1253.9988685981     4.547E-13 3.440E-08 4.579E-18
 ETOT  244  -1253.9988685981     4.547E-13 2.501E-08 3.602E-18
 ETOT  245  -1253.9988685981    -9.095E-13 3.423E-08 3.579E-18
 ETOT  246  -1253.9988685981     2.274E-13 2.487E-08 3.668E-18
 ETOT  247  -1253.9988685981     6.821E-13 3.405E-08 4.491E-18
 ETOT  248  -1253.9988685981    -4.547E-13 2.474E-08 3.093E-18
 ETOT  249  -1253.9988685981     1.137E-12 3.388E-08 3.023E-18
 ETOT  250  -1253.9988685981     0.000E+00 2.460E-08 3.642E-18
 ETOT  251  -1253.9988685981     2.274E-13 3.370E-08 3.096E-18
 ETOT  252  -1253.9988685981     1.137E-12 2.447E-08 4.135E-18
 ETOT  253  -1253.9988685981    -6.821E-13 3.353E-08 3.756E-18
 ETOT  254  -1253.9988685981    -4.547E-13 2.433E-08 3.968E-18
 ETOT  255  -1253.9988685981     6.821E-13 3.335E-08 3.745E-18
 ETOT  256  -1253.9988685981     2.274E-13 2.420E-08 4.077E-18
 ETOT  257  -1253.9988685981     9.095E-13 3.317E-08 4.055E-18
 ETOT  258  -1253.9988685981    -2.274E-13 2.406E-08 3.845E-18
 ETOT  259  -1253.9988685981    -2.274E-13 3.300E-08 3.788E-18
 ETOT  260  -1253.9988685981    -2.274E-13 2.392E-08 4.234E-18
 ETOT  261  -1253.9988685981     1.364E-12 3.282E-08 3.764E-18
 ETOT  262  -1253.9988685981     0.000E+00 2.379E-08 3.718E-18
 ETOT  263  -1253.9988685981    -9.095E-13 3.265E-08 3.947E-18
 ETOT  264  -1253.9988685981     9.095E-13 2.366E-08 3.846E-18
 ETOT  265  -1253.9988685981     0.000E+00 3.247E-08 3.425E-18
 ETOT  266  -1253.9988685981    -9.095E-13 2.352E-08 3.397E-18
 ETOT  267  -1253.9988685981     4.547E-13 3.229E-08 3.977E-18
 ETOT  268  -1253.9988685981     4.547E-13 2.339E-08 4.097E-18
 ETOT  269  -1253.9988685981    -6.821E-13 3.212E-08 4.166E-18
 ETOT  270  -1253.9988685981     9.095E-13 2.325E-08 3.939E-18
 ETOT  271  -1253.9988685981    -1.592E-12 3.194E-08 3.823E-18
 ETOT  272  -1253.9988685981     1.819E-12 2.312E-08 3.399E-18
 ETOT  273  -1253.9988685981    -9.095E-13 3.177E-08 3.881E-18
 ETOT  274  -1253.9988685981     4.547E-13 2.298E-08 3.535E-18
 ETOT  275  -1253.9988685981     1.364E-12 3.159E-08 4.264E-18
 ETOT  276  -1253.9988685981    -6.821E-13 2.285E-08 3.453E-18
 ETOT  277  -1253.9988685981     2.274E-13 3.142E-08 3.581E-18
 ETOT  278  -1253.9988685981    -2.274E-13 2.272E-08 4.916E-18
 ETOT  279  -1253.9988685981    -1.364E-12 3.124E-08 3.582E-18
 ETOT  280  -1253.9988685981     1.137E-12 2.258E-08 3.639E-18
 ETOT  281  -1253.9988685981     0.000E+00 3.107E-08 3.832E-18
 ETOT  282  -1253.9988685981     4.547E-13 2.245E-08 3.806E-18
 ETOT  283  -1253.9988685981    -4.547E-13 3.089E-08 4.144E-18
 ETOT  284  -1253.9988685981     1.137E-12 2.232E-08 3.084E-18
 ETOT  285  -1253.9988685981    -9.095E-13 3.072E-08 3.307E-18
 ETOT  286  -1253.9988685981     0.000E+00 2.219E-08 3.995E-18
 ETOT  287  -1253.9988685981     0.000E+00 3.054E-08 3.510E-18
 ETOT  288  -1253.9988685981    -1.137E-12 2.205E-08 3.952E-18
 ETOT  289  -1253.9988685981     3.183E-12 3.037E-08 3.870E-18
 ETOT  290  -1253.9988685981    -4.547E-13 2.192E-08 3.314E-18
 ETOT  291  -1253.9988685981    -1.364E-12 3.020E-08 4.056E-18
 ETOT  292  -1253.9988685981     9.095E-13 2.179E-08 3.621E-18
 ETOT  293  -1253.9988685981    -4.547E-13 3.002E-08 3.404E-18
 ETOT  294  -1253.9988685981     0.000E+00 2.166E-08 3.961E-18
 ETOT  295  -1253.9988685981     1.364E-12 2.985E-08 3.618E-18
 ETOT  296  -1253.9988685981    -1.364E-12 2.153E-08 4.197E-18
 ETOT  297  -1253.9988685981     4.547E-13 2.968E-08 3.582E-18
 ETOT  298  -1253.9988685981    -1.364E-12 2.140E-08 3.855E-18
 ETOT  299  -1253.9988685981    -4.547E-13 2.950E-08 3.953E-18
 ETOT  300  -1253.9988685981     1.364E-12 2.127E-08 4.875E-18
 ETOT  301  -1253.9988685981     0.000E+00 2.933E-08 3.738E-18
 ETOT  302  -1253.9988685981    -9.095E-13 2.114E-08 3.943E-18
 ETOT  303  -1253.9988685981     1.819E-12 2.916E-08 3.433E-18
 ETOT  304  -1253.9988685981     0.000E+00 2.101E-08 3.678E-18
 ETOT  305  -1253.9988685981    -1.819E-12 2.899E-08 3.961E-18
 ETOT  306  -1253.9988685981     1.364E-12 2.088E-08 3.437E-18
 ETOT  307  -1253.9988685981     0.000E+00 2.882E-08 4.317E-18
 ETOT  308  -1253.9988685981    -9.095E-13 2.075E-08 4.055E-18
 ETOT  309  -1253.9988685981     4.547E-13 2.864E-08 3.978E-18
 ETOT  310  -1253.9988685981    -2.274E-13 2.062E-08 3.608E-18
 ETOT  311  -1253.9988685981     2.274E-13 2.847E-08 4.165E-18
 ETOT  312  -1253.9988685981     4.547E-13 2.049E-08 3.665E-18
 ETOT  313  -1253.9988685981     0.000E+00 2.830E-08 3.097E-18
 ETOT  314  -1253.9988685981    -9.095E-13 2.036E-08 4.035E-18
 ETOT  315  -1253.9988685981     4.547E-13 2.813E-08 3.464E-18
 ETOT  316  -1253.9988685981    -2.274E-13 2.024E-08 3.447E-18
 ETOT  317  -1253.9988685981    -2.274E-13 2.796E-08 3.153E-18
 ETOT  318  -1253.9988685981     4.547E-13 2.011E-08 3.593E-18
 ETOT  319  -1253.9988685981     1.137E-12 2.779E-08 4.140E-18
 ETOT  320  -1253.9988685981     4.547E-13 1.998E-08 3.394E-18
 ETOT  321  -1253.9988685981    -1.592E-12 2.763E-08 3.788E-18
 ETOT  322  -1253.9988685981     9.095E-13 1.986E-08 4.322E-18
 ETOT  323  -1253.9988685981    -6.821E-13 2.746E-08 3.826E-18
 ETOT  324  -1253.9988685981     2.274E-13 1.973E-08 3.221E-18
 ETOT  325  -1253.9988685981    -2.274E-13 2.729E-08 4.084E-18
 ETOT  326  -1253.9988685981    -2.274E-13 1.960E-08 4.180E-18
 ETOT  327  -1253.9988685981     2.274E-13 2.712E-08 3.441E-18
 ETOT  328  -1253.9988685981     1.364E-12 1.948E-08 3.634E-18
 ETOT  329  -1253.9988685981    -1.592E-12 2.695E-08 3.714E-18
 ETOT  330  -1253.9988685981     1.137E-12 1.935E-08 3.739E-18
 ETOT  331  -1253.9988685981     2.274E-13 2.679E-08 3.337E-18
 ETOT  332  -1253.9988685981    -1.137E-12 1.923E-08 3.861E-18
 ETOT  333  -1253.9988685981     2.046E-12 2.662E-08 4.051E-18
 ETOT  334  -1253.9988685981    -2.501E-12 1.911E-08 4.426E-18
 ETOT  335  -1253.9988685981     9.095E-13 2.646E-08 3.495E-18
 ETOT  336  -1253.9988685981     1.137E-12 1.898E-08 3.708E-18
 ETOT  337  -1253.9988685981    -1.364E-12 2.629E-08 4.122E-18
 ETOT  338  -1253.9988685981     9.095E-13 1.886E-08 3.602E-18
 ETOT  339  -1253.9988685981     6.821E-13 2.613E-08 3.361E-18
 ETOT  340  -1253.9988685981    -1.592E-12 1.874E-08 3.707E-18
 ETOT  341  -1253.9988685981     1.364E-12 2.596E-08 3.021E-18
 ETOT  342  -1253.9988685981     4.547E-13 1.861E-08 3.662E-18
 ETOT  343  -1253.9988685981    -9.095E-13 2.580E-08 4.647E-18
 ETOT  344  -1253.9988685981    -2.274E-13 1.849E-08 4.360E-18
 ETOT  345  -1253.9988685981     0.000E+00 2.563E-08 3.458E-18
 ETOT  346  -1253.9988685981    -9.095E-13 1.837E-08 3.054E-18
 ETOT  347  -1253.9988685981     1.592E-12 2.547E-08 4.280E-18
 ETOT  348  -1253.9988685981     0.000E+00 1.825E-08 4.349E-18
 ETOT  349  -1253.9988685981     0.000E+00 2.531E-08 4.627E-18
 ETOT  350  -1253.9988685981    -4.547E-13 1.813E-08 5.068E-18
 ETOT  351  -1253.9988685981     6.821E-13 2.515E-08 3.625E-18
 ETOT  352  -1253.9988685981    -4.547E-13 1.801E-08 3.799E-18
 ETOT  353  -1253.9988685981     0.000E+00 2.499E-08 3.394E-18
 ETOT  354  -1253.9988685981     2.274E-13 1.789E-08 3.728E-18
 ETOT  355  -1253.9988685981     4.547E-13 2.483E-08 3.162E-18
 ETOT  356  -1253.9988685981    -2.274E-13 1.777E-08 3.839E-18
 ETOT  357  -1253.9988685981     6.821E-13 2.466E-08 4.490E-18
 ETOT  358  -1253.9988685981     2.274E-13 1.765E-08 3.439E-18
 ETOT  359  -1253.9988685981    -6.821E-13 2.451E-08 3.875E-18
 ETOT  360  -1253.9988685981    -9.095E-13 1.753E-08 3.811E-18
 ETOT  361  -1253.9988685981     9.095E-13 2.435E-08 4.099E-18
 ETOT  362  -1253.9988685981    -2.274E-13 1.742E-08 3.276E-18
 ETOT  363  -1253.9988685981    -1.137E-12 2.419E-08 4.144E-18
 ETOT  364  -1253.9988685981     1.137E-12 1.730E-08 3.520E-18
 ETOT  365  -1253.9988685981    -4.547E-13 2.403E-08 3.677E-18
 ETOT  366  -1253.9988685981     6.821E-13 1.718E-08 3.499E-18
 ETOT  367  -1253.9988685981     4.547E-13 2.387E-08 3.679E-18
 ETOT  368  -1253.9988685981     4.547E-13 1.707E-08 3.000E-18
 ETOT  369  -1253.9988685981    -1.137E-12 2.372E-08 3.882E-18
 ETOT  370  -1253.9988685981    -2.274E-13 1.695E-08 3.210E-18
 ETOT  371  -1253.9988685981    -2.274E-13 2.356E-08 3.365E-18
 ETOT  372  -1253.9988685981     1.364E-12 1.683E-08 4.236E-18
 ETOT  373  -1253.9988685981    -1.819E-12 2.340E-08 4.343E-18
 ETOT  374  -1253.9988685981     6.821E-13 1.672E-08 3.683E-18
 ETOT  375  -1253.9988685981     2.274E-13 2.325E-08 5.094E-18
 ETOT  376  -1253.9988685981    -1.592E-12 1.661E-08 4.035E-18
 ETOT  377  -1253.9988685981     1.819E-12 2.309E-08 4.514E-18
 ETOT  378  -1253.9988685981     0.000E+00 1.649E-08 3.962E-18
 ETOT  379  -1253.9988685981    -4.547E-13 2.294E-08 3.169E-18
 ETOT  380  -1253.9988685981    -2.274E-13 1.638E-08 3.835E-18
 ETOT  381  -1253.9988685981     6.821E-13 2.279E-08 3.479E-18
 ETOT  382  -1253.9988685981    -2.501E-12 1.627E-08 4.261E-18
 ETOT  383  -1253.9988685981     1.137E-12 2.264E-08 3.779E-18
 ETOT  384  -1253.9988685981     2.274E-12 1.615E-08 3.922E-18
 ETOT  385  -1253.9988685981    -9.095E-13 2.248E-08 3.936E-18
 ETOT  386  -1253.9988685981    -9.095E-13 1.604E-08 3.318E-18
 ETOT  387  -1253.9988685981     0.000E+00 2.233E-08 3.941E-18
 ETOT  388  -1253.9988685981    -1.592E-12 1.593E-08 4.409E-18
 ETOT  389  -1253.9988685981     2.274E-13 2.218E-08 4.116E-18
 ETOT  390  -1253.9988685981     1.364E-12 1.582E-08 3.182E-18
 ETOT  391  -1253.9988685981    -4.547E-13 2.203E-08 3.115E-18
 ETOT  392  -1253.9988685981     9.095E-13 1.571E-08 4.255E-18
 ETOT  393  -1253.9988685981    -9.095E-13 2.188E-08 3.781E-18
 ETOT  394  -1253.9988685981     2.274E-13 1.560E-08 3.186E-18
 ETOT  395  -1253.9988685981    -6.821E-13 2.173E-08 3.237E-18
 ETOT  396  -1253.9988685981     9.095E-13 1.549E-08 3.931E-18
 ETOT  397  -1253.9988685981     0.000E+00 2.158E-08 3.930E-18
 ETOT  398  -1253.9988685981    -4.547E-13 1.538E-08 3.958E-18
 ETOT  399  -1253.9988685981     4.547E-13 2.144E-08 3.790E-18
 ETOT  400  -1253.9988685981    -9.095E-13 1.527E-08 5.159E-18

 Cartesian components of stress tensor (hartree/bohr^3)
  sigma(1 1)=  1.45034189E-02  sigma(3 2)=  0.00000000E+00
  sigma(2 2)=  1.45034189E-02  sigma(3 1)=  0.00000000E+00
  sigma(3 3)=  1.44390489E-02  sigma(2 1)=  0.00000000E+00


 scprqt:  WARNING -
  nstep=  400 was not enough SCF cycles to converge;
  maximum residual=  1.527E-08 exceeds tolwfr=  1.000E-20


--- !ResultsGS
iteration_state: {dtset: 1, }
comment   : Summary of ground state results
lattice_vectors:
- [  7.7624317,   0.0000000,   0.0000000, ]
- [  0.0000000,   7.7624317,   0.0000000, ]
- [  0.0000000,   0.0000000,  39.6085495, ]
lattice_lengths: [   7.76243,    7.76243,   39.60855, ]
lattice_angles: [ 90.000,  90.000,  90.000, ] # degrees, (23, 13, 12)
lattice_volume:   2.3866268E+03
convergence: {deltae: -9.095E-13, res2:  5.159E-18, residm:  1.527E-08, diffor: null, }
etotal    :  -1.25399887E+03
entropy   :   0.00000000E+00
fermie    :   9.70011411E-02
cartesian_stress_tensor: # hartree/bohr^3
- [  1.45034189E-02,   0.00000000E+00,   0.00000000E+00, ]
- [  0.00000000E+00,   1.45034189E-02,   0.00000000E+00, ]
- [  0.00000000E+00,   0.00000000E+00,   1.44390489E-02, ]
pressure_GPa:  -4.2607E+02
xred      :
- [  5.0000E-01,   0.0000E+00,   2.2264E-01, Sn]
- [  0.0000E+00,   5.0000E-01,   3.5382E-01, Sn]
- [  5.0000E-01,   0.0000E+00,   4.8198E-01, Sn]
- [  0.0000E+00,   5.0000E-01,   2.2415E-01, Se]
- [  5.0000E-01,   0.0000E+00,   3.5231E-01, Se]
- [  0.0000E+00,   5.0000E-01,   4.8349E-01, Se]
- [  5.0000E-01,   0.0000E+00,   6.3471E-01, Se]
- [  0.0000E+00,   5.0000E-01,   7.7736E-01, Se]
- [  5.0000E-01,   5.0000E-01,   7.0604E-01, Zn]
- [  0.0000E+00,   0.0000E+00,   7.0604E-01, Zn]
cartesian_forces: # hartree/bohr
- [ -0.00000000E+00,  -0.00000000E+00,  -1.38891906E-02, ]
- [ -0.00000000E+00,  -0.00000000E+00,  -2.08294862E-03, ]
- [ -0.00000000E+00,  -0.00000000E+00,   1.25678419E-02, ]
- [ -0.00000000E+00,  -0.00000000E+00,  -1.67400368E-02, ]
- [ -0.00000000E+00,  -0.00000000E+00,   2.10354587E-04, ]
- [ -0.00000000E+00,  -0.00000000E+00,   2.07595872E-02, ]
- [ -0.00000000E+00,  -0.00000000E+00,   1.14556309E-02, ]
- [ -0.00000000E+00,  -0.00000000E+00,  -8.74227136E-03, ]
- [ -0.00000000E+00,  -0.00000000E+00,  -1.76948360E-03, ]
- [ -0.00000000E+00,  -0.00000000E+00,  -1.76948360E-03, ]
force_length_stats: {min:   2.10354587E-04, max:   2.07595872E-02, mean:   8.99868293E-03, }
...

 Integrated electronic density in atomic spheres:
 ------------------------------------------------
 Atom  Sphere_radius  Integrated_density
    1        2.00000         10.54164059
    2        2.00000         10.57151099
    3        2.00000         10.54676625
    4        2.00000         13.30084245
    5        2.00000         13.31817988
    6        2.00000         13.27726666
    7        2.00000         13.26381082
    8        2.00000         13.25849650
    9        2.00000         18.10156721
   10        2.00000         18.10156721
================================================================================

 ----iterations are completed or convergence reached----

 Mean square residual over all n,k,spin=   12.310E-12; max=  15.273E-09
 reduced coordinates (array xred) for   10 atoms
       0.500000000000      0.000000000000      0.222637000000
       0.000000000000      0.500000000000      0.353822000000
       0.500000000000      0.000000000000      0.481976000000
       0.000000000000      0.500000000000      0.224153000000
       0.500000000000      0.000000000000      0.352307000000
       0.000000000000      0.500000000000      0.483492000000
       0.500000000000      0.000000000000      0.634709000000
       0.000000000000      0.500000000000      0.777363000000
       0.500000000000      0.500000000000      0.706036000000
       0.000000000000      0.000000000000      0.706036000000
 rms dE/dt=  2.5893E-01; max dE/dt=  6.7964E-01; dE/dt below (all hartree)
    1       0.000000000000      0.000000000000      0.566720692128
    2       0.000000000000      0.000000000000      0.099092571297
    3       0.000000000000      0.000000000000     -0.481203991297
    4       0.000000000000      0.000000000000      0.679638575363
    5       0.000000000000      0.000000000000      0.008258158011
    6       0.000000000000      0.000000000000     -0.805667137832
    7       0.000000000000      0.000000000000     -0.437150925982
    8       0.000000000000      0.000000000000      0.362858685604
    9       0.000000000000      0.000000000000      0.086676676696
   10       0.000000000000      0.000000000000      0.086676676696

 cartesian coordinates (angstrom) at end:
    1      2.05385096425820     0.00000000000000     4.66645852584673
    2      0.00000000000000     2.05385096425820     7.41608846926676
    3      2.05385096425820     0.00000000000000    10.10218882959034
    4      0.00000000000000     2.05385096425820     4.69823379736577
    5      2.05385096425820     0.00000000000000     7.38433415768936
    6      0.00000000000000     2.05385096425820    10.13396410110938
    7      2.05385096425820     0.00000000000000    13.30346359536670
    8      0.00000000000000     2.05385096425820    16.29348310940138
    9      2.05385096425820     2.05385096425820    14.79847335238404
   10      0.00000000000000     0.00000000000000    14.79847335238404

 cartesian forces (hartree/bohr) at end:
    1     -0.00000000000000    -0.00000000000000    -0.01388919063366
    2     -0.00000000000000    -0.00000000000000    -0.00208294861515
    3     -0.00000000000000    -0.00000000000000     0.01256784194964
    4     -0.00000000000000    -0.00000000000000    -0.01674003684735
    5     -0.00000000000000    -0.00000000000000     0.00021035458689
    6     -0.00000000000000    -0.00000000000000     0.02075958719213
    7     -0.00000000000000    -0.00000000000000     0.01145563092640
    8     -0.00000000000000    -0.00000000000000    -0.00874227136129
    9     -0.00000000000000    -0.00000000000000    -0.00176948359881
   10     -0.00000000000000    -0.00000000000000    -0.00176948359881
 frms,max,avg= 6.5328744E-03 2.0759587E-02   0.000E+00  0.000E+00 -4.188E-04 h/b

 cartesian forces (eV/Angstrom) at end:
    1     -0.00000000000000    -0.00000000000000    -0.71421083845269
[...]
                       2.000000  2.000000  2.000000  2.000000  2.000000  2.000000
                       2.000000  2.000000  2.000000  0.000000  0.000000  0.000000
                       0.000000  0.000000  0.000000  0.000000  0.000000  0.000000
                       0.000000  0.000000  0.000000  0.000000  0.000000  0.000000
                       0.000000  0.000000  0.000000  0.000000  0.000000  0.000000
                       0.000000  0.000000  0.000000  0.000000  0.000000  0.000000
                       0.000000  0.000000  0.000000  0.000000  0.000000  0.000000
                       0.000000  0.000000  0.000000  0.000000  0.000000  0.000000
                       0.000000  0.000000  0.000000  0.000000  0.000000  0.000000
                       0.000000  0.000000  0.000000  0.000000  0.000000  0.000000
                       0.000000  0.000000  0.000000  0.000000  0.000000  0.000000
                       0.000000  0.000000  0.000000  0.000000  0.000000  0.000000
                       0.000000  0.000000  0.000000  0.000000  0.000000  0.000000
                       0.000000  0.000000  0.000000  0.000000  0.000000  0.000000
                       0.000000  0.000000  0.000000  0.000000  0.000000  0.000000
                       0.000000  0.000000  0.000000  0.000000  0.000000  0.000000
                       0.000000  0.000000  0.000000  0.000000  0.000000  0.000000
                       0.000000  0.000000  0.000000  0.000000  0.000000  0.000000
              occ5     2.000000  2.000000  2.000000  2.000000  2.000000  2.000000
                       2.000000  2.000000  2.000000  2.000000  2.000000  2.000000
                       2.000000  2.000000  2.000000  2.000000  2.000000  2.000000
                       2.000000  2.000000  2.000000  2.000000  2.000000  2.000000
                       2.000000  2.000000  2.000000  2.000000  2.000000  2.000000
                       2.000000  2.000000  2.000000  2.000000  2.000000  2.000000
                       2.000000  2.000000  2.000000  2.000000  2.000000  2.000000
                       2.000000  2.000000  2.000000  2.000000  2.000000  2.000000
                       2.000000  2.000000  2.000000  2.000000  2.000000  2.000000
                       2.000000  2.000000  2.000000  2.000000  2.000000  2.000000
                       2.000000  2.000000  2.000000  2.000000  2.000000  2.000000
                       2.000000  2.000000  2.000000  2.000000  2.000000  2.000000
                       2.000000  2.000000  2.000000  2.000000  2.000000  2.000000
                       2.000000  2.000000  2.000000  0.000000  0.000000  0.000000
                       0.000000  0.000000  0.000000  0.000000  0.000000  0.000000
                       0.000000  0.000000  0.000000  0.000000  0.000000  0.000000
                       0.000000  0.000000  0.000000  0.000000  0.000000  0.000000
                       0.000000  0.000000  0.000000  0.000000  0.000000  0.000000
                       0.000000  0.000000  0.000000  0.000000  0.000000  0.000000
                       0.000000  0.000000  0.000000  0.000000  0.000000  0.000000
                       0.000000  0.000000  0.000000  0.000000  0.000000  0.000000
                       0.000000  0.000000  0.000000  0.000000  0.000000  0.000000
                       0.000000  0.000000  0.000000  0.000000  0.000000  0.000000
                       0.000000  0.000000  0.000000  0.000000  0.000000  0.000000
                       0.000000  0.000000  0.000000  0.000000  0.000000  0.000000
                       0.000000  0.000000  0.000000  0.000000  0.000000  0.000000
                       0.000000  0.000000  0.000000  0.000000  0.000000  0.000000
                       0.000000  0.000000  0.000000  0.000000  0.000000  0.000000
                       0.000000  0.000000  0.000000  0.000000  0.000000  0.000000
                       0.000000  0.000000  0.000000  0.000000  0.000000  0.000000
              occ6     2.000000  2.000000  2.000000  2.000000  2.000000  2.000000
                       2.000000  2.000000  2.000000  2.000000  2.000000  2.000000
                       2.000000  2.000000  2.000000  2.000000  2.000000  2.000000
                       2.000000  2.000000  2.000000  2.000000  2.000000  2.000000
                       2.000000  2.000000  2.000000  2.000000  2.000000  2.000000
                       2.000000  2.000000  2.000000  2.000000  2.000000  2.000000
                       2.000000  2.000000  2.000000  2.000000  2.000000  2.000000
                       2.000000  2.000000  2.000000  2.000000  2.000000  2.000000
                       2.000000  2.000000  2.000000  2.000000  2.000000  2.000000
                       2.000000  2.000000  2.000000  2.000000  2.000000  2.000000
                       2.000000  2.000000  2.000000  2.000000  2.000000  2.000000
                       2.000000  2.000000  2.000000  2.000000  2.000000  2.000000
                       2.000000  2.000000  2.000000  2.000000  2.000000  2.000000
                       2.000000  2.000000  2.000000  0.000000  0.000000  0.000000
                       0.000000  0.000000  0.000000  0.000000  0.000000  0.000000
                       0.000000  0.000000  0.000000  0.000000  0.000000  0.000000
                       0.000000  0.000000  0.000000  0.000000  0.000000  0.000000
                       0.000000  0.000000  0.000000  0.000000  0.000000  0.000000
                       0.000000  0.000000  0.000000  0.000000  0.000000  0.000000
                       0.000000  0.000000  0.000000  0.000000  0.000000  0.000000
                       0.000000  0.000000  0.000000  0.000000  0.000000  0.000000
                       0.000000  0.000000  0.000000  0.000000  0.000000  0.000000
                       0.000000  0.000000  0.000000  0.000000  0.000000  0.000000
                       0.000000  0.000000  0.000000  0.000000  0.000000  0.000000
                       0.000000  0.000000  0.000000  0.000000  0.000000  0.000000
                       0.000000  0.000000  0.000000  0.000000  0.000000  0.000000
                       0.000000  0.000000  0.000000  0.000000  0.000000  0.000000
                       0.000000  0.000000  0.000000  0.000000  0.000000  0.000000
                       0.000000  0.000000  0.000000  0.000000  0.000000  0.000000
                       0.000000  0.000000  0.000000  0.000000  0.000000  0.000000
        optdriver1          0
        optdriver2          0
        optdriver3          0
        optdriver4          1
        optdriver5          1
        optdriver6          1
            prtwf1          1
            prtwf2          1
            prtwf3          1
            prtwf4          3
            prtwf5          3
            prtwf6          3
            rfdir1          0       0       0
            rfdir2          0       0       0
            rfdir3          0       0       0
            rfdir4          1       0       0
            rfdir5          0       1       0
            rfdir6          0       0       1
           rfelfd1          0
           rfelfd2          0
           rfelfd3          0
           rfelfd4          2
           rfelfd5          2
           rfelfd6          2
            rprim      1.0000000000E+00  0.0000000000E+00  0.0000000000E+00
                       0.0000000000E+00  1.0000000000E+00  0.0000000000E+00
                       0.0000000000E+00  0.0000000000E+00  5.1025955632E+00
           shiftk      5.00000000E-01  5.00000000E-01  5.00000000E-01
          spgroup          99
           strten1     1.4503418880E-02  1.4503418880E-02  1.4439048907E-02
                       0.0000000000E+00  0.0000000000E+00  0.0000000000E+00
           symrel      1  0  0   0  1  0   0  0  1       1  0  0   0 -1  0   0  0  1
                      -1  0  0   0 -1  0   0  0  1      -1  0  0   0  1  0   0  0  1
                       0  1  0   1  0  0   0  0  1       0  1  0  -1  0  0   0  0  1
                       0 -1  0  -1  0  0   0  0  1       0 -1  0   1  0  0   0  0  1
            tnons      0.0000000  0.0000000  0.0000000     0.0000000 -0.0000000  0.0000000
                      -0.0000000 -0.0000000  0.0000000    -0.0000000  0.0000000  0.0000000
                       0.5000000  0.5000000  0.0000000     0.5000000  0.5000000  0.0000000
                       0.5000000  0.5000000  0.0000000     0.5000000  0.5000000  0.0000000
           tolwfr      1.00000000E-20
            typat      1  1  1  2  2  2  2  2  3  3
           vdw_xc           5
              wtk1       0.04000    0.08000    0.08000    0.08000    0.08000    0.04000
                         0.08000    0.08000    0.08000    0.04000    0.08000    0.08000
                         0.04000    0.08000    0.04000
              wtk2       0.04000    0.08000    0.08000    0.08000    0.08000    0.04000
                         0.08000    0.08000    0.08000    0.04000    0.08000    0.08000
                         0.04000    0.08000    0.04000
              wtk3       0.01000    0.01000    0.01000    0.01000    0.01000    0.01000
                         0.01000    0.01000    0.01000    0.01000    0.01000    0.01000
                         0.01000    0.01000    0.01000    0.01000    0.01000    0.01000
                         0.01000    0.01000    0.01000    0.01000    0.01000    0.01000
                         0.01000    0.01000    0.01000    0.01000    0.01000    0.01000
                         0.01000    0.01000    0.01000    0.01000    0.01000    0.01000
                         0.01000    0.01000    0.01000    0.01000    0.01000    0.01000
                         0.01000    0.01000    0.01000    0.01000    0.01000    0.01000
                         0.01000    0.01000
              wtk4       0.01000    0.01000    0.01000    0.01000    0.01000    0.01000
                         0.01000    0.01000    0.01000    0.01000    0.01000    0.01000
                         0.01000    0.01000    0.01000    0.01000    0.01000    0.01000
                         0.01000    0.01000    0.01000    0.01000    0.01000    0.01000
                         0.01000    0.01000    0.01000    0.01000    0.01000    0.01000
                         0.01000    0.01000    0.01000    0.01000    0.01000    0.01000
                         0.01000    0.01000    0.01000    0.01000    0.01000    0.01000
                         0.01000    0.01000    0.01000    0.01000    0.01000    0.01000
                         0.01000    0.01000
              wtk5       0.01000    0.01000    0.01000    0.01000    0.01000    0.01000
                         0.01000    0.01000    0.01000    0.01000    0.01000    0.01000
                         0.01000    0.01000    0.01000    0.01000    0.01000    0.01000
                         0.01000    0.01000    0.01000    0.01000    0.01000    0.01000
                         0.01000    0.01000    0.01000    0.01000    0.01000    0.01000
                         0.01000    0.01000    0.01000    0.01000    0.01000    0.01000
                         0.01000    0.01000    0.01000    0.01000    0.01000    0.01000
                         0.01000    0.01000    0.01000    0.01000    0.01000    0.01000
                         0.01000    0.01000
              wtk6       0.01000    0.01000    0.01000    0.01000    0.01000    0.01000
                         0.01000    0.01000    0.01000    0.01000    0.01000    0.01000
                         0.01000    0.01000    0.01000    0.01000    0.01000    0.01000
                         0.01000    0.01000    0.01000    0.01000    0.01000    0.01000
                         0.01000    0.01000    0.01000    0.01000    0.01000    0.01000
                         0.01000    0.01000    0.01000    0.01000    0.01000    0.01000
                         0.01000    0.01000    0.01000    0.01000    0.01000    0.01000
                         0.01000    0.01000    0.01000    0.01000    0.01000    0.01000
                         0.01000    0.01000
                       outvars : Printing only first  50 k-points.
           xangst      2.0538509643E+00  0.0000000000E+00  4.6664585258E+00
                       0.0000000000E+00  2.0538509643E+00  7.4160884693E+00
                       2.0538509643E+00  0.0000000000E+00  1.0102188830E+01
                       0.0000000000E+00  2.0538509643E+00  4.6982337974E+00
                       2.0538509643E+00  0.0000000000E+00  7.3843341577E+00
                       0.0000000000E+00  2.0538509643E+00  1.0133964101E+01
                       2.0538509643E+00  0.0000000000E+00  1.3303463595E+01
                       0.0000000000E+00  2.0538509643E+00  1.6293483109E+01
                       2.0538509643E+00  2.0538509643E+00  1.4798473352E+01
                       0.0000000000E+00  0.0000000000E+00  1.4798473352E+01
            xcart      3.8812158402E+00  0.0000000000E+00  8.8183286243E+00
                       0.0000000000E+00  3.8812158402E+00  1.4014376184E+01
                       3.8812158402E+00  0.0000000000E+00  1.9090370231E+01
                       0.0000000000E+00  3.8812158402E+00  8.8783751853E+00
                       3.8812158402E+00  0.0000000000E+00  1.3954369232E+01
                       0.0000000000E+00  3.8812158402E+00  1.9150416792E+01
                       3.8812158402E+00  0.0000000000E+00  2.5139902814E+01
                       0.0000000000E+00  3.8812158402E+00  3.0790220828E+01
                       3.8812158402E+00  3.8812158402E+00  2.7965061821E+01
                       0.0000000000E+00  0.0000000000E+00  2.7965061821E+01
             xred      5.0000000000E-01  0.0000000000E+00  2.2263700000E-01
                       0.0000000000E+00  5.0000000000E-01  3.5382200000E-01
                       5.0000000000E-01  0.0000000000E+00  4.8197600000E-01
                       0.0000000000E+00  5.0000000000E-01  2.2415300000E-01
                       5.0000000000E-01  0.0000000000E+00  3.5230700000E-01
                       0.0000000000E+00  5.0000000000E-01  4.8349200000E-01
                       5.0000000000E-01  0.0000000000E+00  6.3470900000E-01
                       0.0000000000E+00  5.0000000000E-01  7.7736300000E-01
                       5.0000000000E-01  5.0000000000E-01  7.0603600000E-01
                       0.0000000000E+00  0.0000000000E+00  7.0603600000E-01
            znucl       50.00000   34.00000   30.00000

================================================================================


- Timing analysis has been suppressed with timopt=0



================================================================================

 Suggested references for the acknowledgment of ABINIT usage.

 The users of ABINIT have little formal obligations with respect to the ABINIT group
 (those specified in the GNU General Public License, http://www.gnu.org/copyleft/gpl.txt).
 However, it is common practice in the scientific literature,
 to acknowledge the efforts of people that have made the research possible.
 In this spirit, please find below suggested citations of work written by ABINIT developers,
 corresponding to implementations inside of ABINIT that you have used in the present run.
 Note also that it will be of great value to readers of publications presenting these results,
 to read papers enabling them to understand the theoretical formalism and details
 of the ABINIT implementation.
 For information on why they are suggested, see also https://docs.abinit.org/theory/acknowledgments.
-
- [1] The Abinit project: Impact, environment and recent developments.
- Computer Phys. Comm. 248, 107042 (2020).
- X.Gonze, B. Amadon, G. Antonius, F.Arnardi, L.Baguet, J.-M.Beuken,
- J.Bieder, F.Bottin, J.Bouchet, E.Bousquet, N.Brouwer, F.Bruneval,
- G.Brunin, T.Cavignac, J.-B. Charraud, Wei Chen, M.Cote, S.Cottenier,
- J.Denier, G.Geneste, Ph.Ghosez, M.Giantomassi, Y.Gillet, O.Gingras,
- D.R.Hamann, G.Hautier, Xu He, N.Helbig, N.Holzwarth, Y.Jia, F.Jollet,
- W.Lafargue-Dit-Hauret, K.Lejaeghere, M.A.L.Marques, A.Martin, C.Martins,
- H.P.C. Miranda, F.Naccarato, K. Persson, G.Petretto, V.Planes, Y.Pouillon,
- S.Prokhorenko, F.Ricci, G.-M.Rignanese, A.H.Romero, M.M.Schmitt, M.Torrent,
- M.J.van Setten, B.Van Troeye, M.J.Verstraete, G.Zerah and J.W.Zwanzig
- Comment: the fifth generic paper describing the ABINIT project.
- Note that a version of this paper, that is not formatted for Computer Phys. Comm. 
- is available at https://www.abinit.org/sites/default/files/ABINIT20.pdf .
- The licence allows the authors to put it on the Web.
- DOI and bibtex: see https://docs.abinit.org/theory/bibliography/#gonze2020
-
- [2] First-principles responses of solids to atomic displacements and homogeneous electric fields:,
- implementation of a conjugate-gradient algorithm. X. Gonze, Phys. Rev. B55, 10337 (1997).
- Comment: Non-vanishing rfphon and/or rfelfd, in the norm-conserving case.
- DOI and bibtex: see https://docs.abinit.org/theory/bibliography/#gonze1997
-
- [3] Dynamical matrices, Born effective charges, dielectric permittivity tensors, and ,
- interatomic force constants from density-functional perturbation theory,
- X. Gonze and C. Lee, Phys. Rev. B55, 10355 (1997).
- Comment: Non-vanishing rfphon and/or rfelfd, in the norm-conserving case.
- DOI and bibtex: see https://docs.abinit.org/theory/bibliography/#gonze1997a
-
- [4] Optimized norm-conserving Vanderbilt pseudopotentials.
- D.R. Hamann, Phys. Rev. B 88, 085117 (2013).
- Comment: Some pseudopotential generated using the ONCVPSP code were used.
- DOI and bibtex: see https://docs.abinit.org/theory/bibliography/#hamann2013
-
- [5] ABINIT: Overview, and focus on selected capabilities
- J. Chem. Phys. 152, 124102 (2020).
- A. Romero, D.C. Allan, B. Amadon, G. Antonius, T. Applencourt, L.Baguet,
- J.Bieder, F.Bottin, J.Bouchet, E.Bousquet, F.Bruneval,
- G.Brunin, D.Caliste, M.Cote,
- J.Denier, C. Dreyer, Ph.Ghosez, M.Giantomassi, Y.Gillet, O.Gingras,
- D.R.Hamann, G.Hautier, F.Jollet, G. Jomard,
- A.Martin, 
- H.P.C. Miranda, F.Naccarato, G.Petretto, N.A. Pike, V.Planes,
- S.Prokhorenko, T. Rangel, F.Ricci, G.-M.Rignanese, M.Royo, M.Stengel, M.Torrent,
- M.J.van Setten, B.Van Troeye, M.J.Verstraete, J.Wiktor, J.W.Zwanziger, and X.Gonze.
- Comment: a global overview of ABINIT, with focus on selected capabilities .
- Note that a version of this paper, that is not formatted for J. Chem. Phys 
- is available at https://www.abinit.org/sites/default/files/ABINIT20_JPC.pdf .
- The licence allows the authors to put it on the Web.
- DOI and bibtex: see https://docs.abinit.org/theory/bibliography/#romero2020
-
- [6] Recent developments in the ABINIT software package.
- Computer Phys. Comm. 205, 106 (2016).
- X.Gonze, F.Jollet, F.Abreu Araujo, D.Adams, B.Amadon, T.Applencourt,
- C.Audouze, J.-M.Beuken, J.Bieder, A.Bokhanchuk, E.Bousquet, F.Bruneval
- D.Caliste, M.Cote, F.Dahm, F.Da Pieve, M.Delaveau, M.Di Gennaro,
- B.Dorado, C.Espejo, G.Geneste, L.Genovese, A.Gerossier, M.Giantomassi,
- Y.Gillet, D.R.Hamann, L.He, G.Jomard, J.Laflamme Janssen, S.Le Roux,
- A.Levitt, A.Lherbier, F.Liu, I.Lukacevic, A.Martin, C.Martins,
- M.J.T.Oliveira, S.Ponce, Y.Pouillon, T.Rangel, G.-M.Rignanese,
- A.H.Romero, B.Rousseau, O.Rubel, A.A.Shukri, M.Stankovski, M.Torrent,
- M.J.Van Setten, B.Van Troeye, M.J.Verstraete, D.Waroquier, J.Wiktor,
- B.Xu, A.Zhou, J.W.Zwanziger.
- Comment: the fourth generic paper describing the ABINIT project.
- Note that a version of this paper, that is not formatted for Computer Phys. Comm. 
- is available at https://www.abinit.org/sites/default/files/ABINIT16.pdf .
- The licence allows the authors to put it on the Web.
- DOI and bibtex: see https://docs.abinit.org/theory/bibliography/#gonze2016
-
- Proc.   0 individual time (sec): cpu=       6978.6  wall=       6982.9

================================================================================

 Calculation completed.
.Delivered   7 WARNINGs and   0 COMMENTs to log file.
+Overall time at end (sec) : cpu=      41868.4  wall=      41897.0
