
.Version 9.2.2 of ABINIT 
.(MPI version, prepared for a x86_64_linux_gnu9.3 computer) 

.Copyright (C) 1998-2020 ABINIT group . 
 ABINIT comes with ABSOLUTELY NO WARRANTY.
 It is free software, and you are welcome to redistribute it
 under certain conditions (GNU General Public License,
 see ~abinit/COPYING or http://www.gnu.org/copyleft/gpl.txt).

 ABINIT is a project of the Universite Catholique de Louvain,
 Corning Inc. and other collaborators, see ~abinit/doc/developers/contributors.txt .
 Please read https://docs.abinit.org/theory/acknowledgments for suggested
 acknowledgments of the ABINIT effort.
 For more information, see https://www.abinit.org .

.Starting date : Sat 16 Mar 2024.
- ( at 16h04 )
  
- The starting date is more than 3 years after the initial release
- of this version of ABINIT, namely Nov 2020.
- This version of ABINIT is not supported anymore.
- Action: please, switch to a more recent version of ABINIT.
- input  file    -> Cs2TiI6.in
- output file    -> Cs2TiI6.out
- root for input  files -> Cs2TiI6i
- root for output files -> Cs2TiI6o


 DATASET    1 : space group P4 m m (# 99); Bravais tP (primitive tetrag.)
================================================================================
 Values of the parameters that define the memory need for DATASET  1.
     intxc =       0    ionmov =       0      iscf =      17    lmnmax =       6
     lnmax =       6     mgfft =     150  mpssoang =       3    mqgrid =    7399
     natom =       8  nloc_mem =       1    nspden =       1   nspinor =       1
    nsppol =       1      nsym =       8    n1xccc =    2501    ntypat =       3
    occopt =       1   xclevel =       2
-    mband =          74        mffmem =           1         mkmem =           2
       mpw =       10682          nfft =      194400          nkpt =          10
================================================================================
P This job should need less than                      94.505 Mbytes of memory.
  Rough estimation (10% accuracy) of disk space for files :
_ WF disk file :    120.618 Mbytes ; DEN or POT disk file :      1.485 Mbytes.
================================================================================


 DATASET    2 : space group P4 m m (# 99); Bravais tP (primitive tetrag.)
================================================================================
 Values of the parameters that define the memory need for DATASET  2.
     intxc =       0    ionmov =       0      iscf =      -2    lmnmax =       6
     lnmax =       6     mgfft =     150  mpssoang =       3    mqgrid =    7399
     natom =       8  nloc_mem =       1    nspden =       1   nspinor =       1
    nsppol =       1      nsym =       8    n1xccc =    2501    ntypat =       3
    occopt =       1   xclevel =       2
-    mband =          74        mffmem =           1         mkmem =          10
       mpw =       10706          nfft =      194400          nkpt =          57
================================================================================
P This job should need less than                     162.665 Mbytes of memory.
  Rough estimation (10% accuracy) of disk space for files :
_ WF disk file :    689.057 Mbytes ; DEN or POT disk file :      1.485 Mbytes.
================================================================================


 DATASET    3 : space group P4 m m (# 99); Bravais tP (primitive tetrag.)
================================================================================
 Values of the parameters that define the memory need for DATASET  3.
     intxc =       0    ionmov =       0      iscf =      -3    lmnmax =       6
     lnmax =       6     mgfft =     150  mpssoang =       3    mqgrid =    7399
     natom =       8  nloc_mem =       1    nspden =       1   nspinor =       1
    nsppol =       1      nsym =       8    n1xccc =    2501    ntypat =       3
    occopt =       1   xclevel =       2
-    mband =          74        mffmem =           1         mkmem =           2
       mpw =       10682          nfft =      194400          nkpt =          10
================================================================================
P This job should need less than                      64.841 Mbytes of memory.
  Rough estimation (10% accuracy) of disk space for files :
_ WF disk file :    120.618 Mbytes ; DEN or POT disk file :      1.485 Mbytes.
================================================================================

--------------------------------------------------------------------------------
------------- Echo of variables that govern the present computation ------------
--------------------------------------------------------------------------------
-
- outvars: echo of selected default values                                      
-   iomode0 =  0 , fftalg0 =112 , wfoptalg0 =  0
-
- outvars: echo of global parameters not present in the input file              
-  max_nthreads =    0
-
 -outvars: echo values of preprocessed input variables --------
            acell      7.7624316804E+00  7.7624316804E+00  7.7624316804E+00 Bohr
              amu      1.18710000E+02  7.89600000E+01  6.53900000E+01
           diemac      1.20000000E+01
        dosdeltae1     0.00000000E+00 Hartree
        dosdeltae2     0.00000000E+00 Hartree
        dosdeltae3     1.00000000E-03 Hartree
             ecut      2.25000000E+01 Hartree
-          fftalg         112
           getden1          0
           getden2          1
           getden3          1
           getwfk1          0
           getwfk2          0
           getwfk3          1
           iatsph3       1    3    6    7
             iscf1         17
             iscf2         -2
             iscf3         -3
           istwfk2       7    0    0    0    0    0    0    0    0    0
                         4    0    0    0    0    0    0    0    0    0
                         0    0    2    0    0    0    0    0    0    0
                         0    0    0    0    0    0    0    0    0    0
                         9    0    0    0    0    0    0    0    8    0
              ixc     -101130
           jdtset        1    2    3
              kpt1     6.25000000E-02  6.25000000E-02  5.00000000E-01
                       1.87500000E-01  6.25000000E-02  5.00000000E-01
                       3.12500000E-01  6.25000000E-02  5.00000000E-01
                       4.37500000E-01  6.25000000E-02  5.00000000E-01
                       1.87500000E-01  1.87500000E-01  5.00000000E-01
                       3.12500000E-01  1.87500000E-01  5.00000000E-01
                       4.37500000E-01  1.87500000E-01  5.00000000E-01
                       3.12500000E-01  3.12500000E-01  5.00000000E-01
                       4.37500000E-01  3.12500000E-01  5.00000000E-01
                       4.37500000E-01  4.37500000E-01  5.00000000E-01
              kpt2     5.00000000E-01  5.00000000E-01  0.00000000E+00
                       4.50000000E-01  4.50000000E-01  5.00000000E-02
                       4.00000000E-01  4.00000000E-01  1.00000000E-01
                       3.50000000E-01  3.50000000E-01  1.50000000E-01
                       3.00000000E-01  3.00000000E-01  2.00000000E-01
                       2.50000000E-01  2.50000000E-01  2.50000000E-01
                       2.00000000E-01  2.00000000E-01  3.00000000E-01
                       1.50000000E-01  1.50000000E-01  3.50000000E-01
                       1.00000000E-01  1.00000000E-01  4.00000000E-01
                       5.00000000E-02  5.00000000E-02  4.50000000E-01
                       0.00000000E+00  0.00000000E+00  5.00000000E-01
                       0.00000000E+00  0.00000000E+00  4.58333333E-01
                       0.00000000E+00  0.00000000E+00  4.16666667E-01
                       0.00000000E+00  0.00000000E+00  3.75000000E-01
                       0.00000000E+00  0.00000000E+00  3.33333333E-01
                       0.00000000E+00  0.00000000E+00  2.91666667E-01
                       0.00000000E+00  0.00000000E+00  2.50000000E-01
                       0.00000000E+00  0.00000000E+00  2.08333333E-01
                       0.00000000E+00  0.00000000E+00  1.66666667E-01
                       0.00000000E+00  0.00000000E+00  1.25000000E-01
                       0.00000000E+00  0.00000000E+00  8.33333333E-02
                       0.00000000E+00  0.00000000E+00  4.16666667E-02
                       0.00000000E+00  0.00000000E+00  0.00000000E+00
                       2.77777778E-02  2.77777778E-02  2.77777778E-02
                       5.55555556E-02  5.55555556E-02  5.55555556E-02
                       8.33333333E-02  8.33333333E-02  8.33333333E-02
                       1.11111111E-01  1.11111111E-01  1.11111111E-01
                       1.38888889E-01  1.38888889E-01  1.38888889E-01
                       1.66666667E-01  1.66666667E-01  1.66666667E-01
                       1.94444444E-01  1.94444444E-01  1.94444444E-01
                       2.22222222E-01  2.22222222E-01  2.22222222E-01
                       2.50000000E-01  2.50000000E-01  2.50000000E-01
                       2.77777778E-01  2.77777778E-01  2.77777778E-01
                       3.05555556E-01  3.05555556E-01  3.05555556E-01
                       3.33333333E-01  3.33333333E-01  3.33333333E-01
                       3.61111111E-01  3.61111111E-01  3.61111111E-01
                       3.88888889E-01  3.88888889E-01  3.88888889E-01
                       4.16666667E-01  4.16666667E-01  4.16666667E-01
                       4.44444444E-01  4.44444444E-01  4.44444444E-01
                       4.72222222E-01  4.72222222E-01  4.72222222E-01
                       5.00000000E-01  5.00000000E-01  5.00000000E-01
                       4.37500000E-01  5.00000000E-01  5.00000000E-01
                       3.75000000E-01  5.00000000E-01  5.00000000E-01
                       3.12500000E-01  5.00000000E-01  5.00000000E-01
                       2.50000000E-01  5.00000000E-01  5.00000000E-01
                       1.87500000E-01  5.00000000E-01  5.00000000E-01
                       1.25000000E-01  5.00000000E-01  5.00000000E-01
                       6.25000000E-02  5.00000000E-01  5.00000000E-01
                       0.00000000E+00  5.00000000E-01  5.00000000E-01
                       0.00000000E+00  5.00000000E-01  4.37500000E-01
              kpt3     6.25000000E-02  6.25000000E-02  5.00000000E-01
                       1.87500000E-01  6.25000000E-02  5.00000000E-01
                       3.12500000E-01  6.25000000E-02  5.00000000E-01
                       4.37500000E-01  6.25000000E-02  5.00000000E-01
                       1.87500000E-01  1.87500000E-01  5.00000000E-01
                       3.12500000E-01  1.87500000E-01  5.00000000E-01
                       4.37500000E-01  1.87500000E-01  5.00000000E-01
                       3.12500000E-01  3.12500000E-01  5.00000000E-01
                       4.37500000E-01  3.12500000E-01  5.00000000E-01
                       4.37500000E-01  4.37500000E-01  5.00000000E-01
                       outvar_i_n : Printing only first  50 k-points.
           kptopt1          1
           kptopt2         -5
           kptopt3          1
         kptrlatt        8    0    0      0    8    0      0    0    1
          kptrlen1     6.20994534E+01
          kptrlen2     3.00000000E+01
          kptrlen3     6.20994534E+01
P           mkmem1          2
P           mkmem2         10
P           mkmem3          2
            natom           8
           natsph3       4
            nband1         74
            nband2         74
            nband3         74
           nbdbuf1          0
           nbdbuf2          2
           nbdbuf3          2
           ndtset           3
            ngfft          36      36     150
             nkpt1         10
             nkpt2         57
             nkpt3         10
            nstep1       1000
            nstep2        300
            nstep3        300
             nsym           8
           ntypat           3
              occ      2.000000  2.000000  2.000000  2.000000  2.000000  2.000000
                       2.000000  2.000000  2.000000  2.000000  2.000000  2.000000
                       2.000000  2.000000  2.000000  2.000000  2.000000  2.000000
                       2.000000  2.000000  2.000000  2.000000  2.000000  2.000000
                       2.000000  2.000000  2.000000  2.000000  2.000000  2.000000
                       2.000000  2.000000  2.000000  2.000000  2.000000  2.000000
                       2.000000  2.000000  2.000000  2.000000  2.000000  2.000000
                       2.000000  2.000000  2.000000  2.000000  2.000000  2.000000
                       2.000000  2.000000  2.000000  2.000000  2.000000  2.000000
                       2.000000  2.000000  2.000000  2.000000  2.000000  2.000000
                       2.000000  2.000000  2.000000  2.000000  2.000000  2.000000
                       0.000000  0.000000  0.000000  0.000000  0.000000  0.000000
                       0.000000  0.000000
           prtcif           1
           prtdos1          0
           prtdos2          0
           prtdos3          3
            rprim      1.0000000000E+00  0.0000000000E+00  0.0000000000E+00
                       0.0000000000E+00  1.0000000000E+00  0.0000000000E+00
                       0.0000000000E+00  0.0000000000E+00  4.4638771264E+00
           shiftk      5.00000000E-01  5.00000000E-01  5.00000000E-01
          spgroup          99
           symrel      1  0  0   0  1  0   0  0  1       1  0  0   0 -1  0   0  0  1
                      -1  0  0   0 -1  0   0  0  1      -1  0  0   0  1  0   0  0  1
                       0  1  0   1  0  0   0  0  1       0  1  0  -1  0  0   0  0  1
                       0 -1  0  -1  0  0   0  0  1       0 -1  0   1  0  0   0  0  1
            tnons      0.0000000  0.0000000  0.0000000     0.0000000  0.0000000  0.0000000
                       0.0000000  0.0000000  0.0000000     0.0000000  0.0000000  0.0000000
                       0.5000000  0.5000000  0.0000000     0.5000000  0.5000000  0.0000000
                       0.5000000  0.5000000  0.0000000     0.5000000  0.5000000  0.0000000
           tolwfr      1.00000000E-20
            typat      1  1  2  2  2  2  3  3
           vdw_xc           5
              wtk1       0.06250    0.12500    0.12500    0.12500    0.06250    0.12500
                         0.12500    0.06250    0.12500    0.06250
              wtk2       1.00000    1.00000    1.00000    1.00000    1.00000    1.00000
                         1.00000    1.00000    1.00000    1.00000    1.00000    1.00000
                         1.00000    1.00000    1.00000    1.00000    1.00000    1.00000
                         1.00000    1.00000    1.00000    1.00000    1.00000    1.00000
                         1.00000    1.00000    1.00000    1.00000    1.00000    1.00000
                         1.00000    1.00000    1.00000    1.00000    1.00000    1.00000
                         1.00000    1.00000    1.00000    1.00000    1.00000    1.00000
                         1.00000    1.00000    1.00000    1.00000    1.00000    1.00000
                         1.00000    1.00000
              wtk3       0.06250    0.12500    0.12500    0.12500    0.06250    0.12500
                         0.12500    0.06250    0.12500    0.06250
                       outvars : Printing only first  50 k-points.
           xangst      2.0538509643E+00  0.0000000000E+00  4.6664723976E+00
                       0.0000000000E+00  2.0538509643E+00  7.4160887673E+00
                       2.0538509643E+00  0.0000000000E+00  7.3843303361E+00
                       0.0000000000E+00  2.0538509643E+00  4.6982308288E+00
                       2.0538509643E+00  0.0000000000E+00  1.0679799326E+01
                       0.0000000000E+00  2.0538509643E+00  1.3669804283E+01
                       2.0538509643E+00  2.0538509643E+00  1.2174810973E+01
                       0.0000000000E+00  0.0000000000E+00  1.2174810973E+01
            xcart      3.8812158402E+00  0.0000000000E+00  8.8183548382E+00
                       0.0000000000E+00  3.8812158402E+00  1.4014376747E+01
                       3.8812158402E+00  0.0000000000E+00  1.3954362010E+01
                       0.0000000000E+00  3.8812158402E+00  8.8783695756E+00
                       3.8812158402E+00  0.0000000000E+00  2.0181895881E+01
                       0.0000000000E+00  3.8812158402E+00  2.5832186386E+01
                       3.8812158402E+00  3.8812158402E+00  2.3007058458E+01
                       0.0000000000E+00  0.0000000000E+00  2.3007058458E+01
             xred      5.0000000000E-01  0.0000000000E+00  2.5449400000E-01
                       0.0000000000E+00  5.0000000000E-01  4.0444900000E-01
                       5.0000000000E-01  0.0000000000E+00  4.0271700000E-01
                       0.0000000000E+00  5.0000000000E-01  2.5622600000E-01
                       5.0000000000E-01  0.0000000000E+00  5.8244100000E-01
                       0.0000000000E+00  5.0000000000E-01  7.4550600000E-01
                       5.0000000000E-01  5.0000000000E-01  6.6397400000E-01
                       0.0000000000E+00  0.0000000000E+00  6.6397400000E-01
            znucl       50.00000   34.00000   30.00000

================================================================================

 chkinp: Checking input parameters for consistency, jdtset=   1.

 chkinp: Checking input parameters for consistency, jdtset=   2.

 chkinp: Checking input parameters for consistency, jdtset=   3.

================================================================================
== DATASET  1 ==================================================================
-   mpi_nproc: 6, omp_nthreads: -1 (-1 if OMP is not activated)


--- !DatasetInfo
iteration_state: {dtset: 1, }
dimensions: {natom: 8, nkpt: 10, mband: 74, nsppol: 1, nspinor: 1, nspden: 1, mpw: 10682, }
cutoff_energies: {ecut:  22.5, pawecutdg:  -1.0, }
electrons: {nelect:   1.32000000E+02, charge:   0.00000000E+00, occopt:   1.00000000E+00, tsmear:   1.00000000E-02, }
meta: {optdriver: 0, ionmov: 0, optcell: 0, iscf: 17, paral_kgb: 0, }
...

 Real(R)+Recip(G) space primitive vectors, cartesian coordinates (Bohr,Bohr^-1):
 R(1)=  7.7624317  0.0000000  0.0000000  G(1)=  0.1288256  0.0000000  0.0000000
 R(2)=  0.0000000  7.7624317  0.0000000  G(2)=  0.0000000  0.1288256  0.0000000
 R(3)=  0.0000000  0.0000000 34.6505412  G(3)=  0.0000000  0.0000000  0.0288596
 Unit cell volume ucvol=  2.0878803E+03 bohr^3
 Angles (23,13,12)=  9.00000000E+01  9.00000000E+01  9.00000000E+01 degrees

 getcut: wavevector=  0.0000  0.0000  0.0000  ngfft=  36  36 150
         ecut(hartree)=     22.500   => boxcut(ratio)=   2.02733

--- Pseudopotential description ------------------------------------------------
- pspini: atom type   1  psp file is ../../../Psps_for_tests/ATOMICDATA_NC/Sn.psp8
- pspatm: opening atomic psp file    ../../../Psps_for_tests/ATOMICDATA_NC/Sn.psp8
- Sn    ONCVPSP  r_core=  2.27  2.62  1.86
- 50.00000  14.00000    150810                znucl, zion, pspdat
    8   11    2    4       600   0.00000      pspcod,pspxc,lmax,lloc,mmax,r2well
    5.99000000000000    6.50000000000000    0.00000000000000   rchrg,fchrg,qchrg
     nproj     2     2     2
     extension_switch     1
  pspatm : epsatm=   32.65190642
         --- l  ekb(1:nproj) -->
             0    5.462393    0.682281
             1    4.443814    0.825686
             2   -5.382195   -1.704077
 pspatm: atomic psp has been read  and splines computed

- pspini: atom type   2  psp file is ../../../Psps_for_tests/ATOMICDATA_NC/Se.psp8
- pspatm: opening atomic psp file    ../../../Psps_for_tests/ATOMICDATA_NC/Se.psp8
- Se    ONCVPSP  r_core=  1.82  1.50  1.91
- 34.00000  16.00000    150729                znucl, zion, pspdat
    8   11    2    4       600   0.00000      pspcod,pspxc,lmax,lloc,mmax,r2well
    5.99000000000000    5.00000000000000    0.00000000000000   rchrg,fchrg,qchrg
     nproj     2     2     2
     extension_switch     1
  pspatm : epsatm=   29.53325930
         --- l  ekb(1:nproj) -->
             0    8.612261    0.939919
             1    6.984962    1.281898
             2   -9.322521   -3.856218
 pspatm: atomic psp has been read  and splines computed

- pspini: atom type   3  psp file is ../../../Psps_for_tests/ATOMICDATA_NC/Zn.psp8
- pspatm: opening atomic psp file    ../../../Psps_for_tests/ATOMICDATA_NC/Zn.psp8
- Zn    ONCVPSP  r_core=  1.36  1.66  1.85
- 30.00000  20.00000    161102                znucl, zion, pspdat
    8   11    2    4       600   0.00000      pspcod,pspxc,lmax,lloc,mmax,r2well
    5.99000000000000    2.50000000000000    0.00000000000000   rchrg,fchrg,qchrg
     nproj     2     2     2
     extension_switch     1
  pspatm : epsatm=   26.67245340
         --- l  ekb(1:nproj) -->
             0    2.404235   -1.533451
             1   -4.677427   -1.530630
             2   -7.000316   -2.622858
 pspatm: atomic psp has been read  and splines computed

   3.12551919E+04                                ecore*ucvol(ha*bohr**3)
--------------------------------------------------------------------------------

_setup2: Arith. and geom. avg. npw (full set) are   10643.125   10643.112

================================================================================

--- !BeginCycle
iteration_state: {dtset: 1, }
solver: {iscf: 17, nstep: 1000, nline: 4, wfoptalg: 0, }
tolerances: {tolwfr: 1.00E-20, }
...

     iter   Etot(hartree)      deltaE(h)  residm     nres2
 ETOT  1  -1043.4214083884    -1.043E+03 8.127E-01 1.610E+03
 ETOT  2  -1108.1299890070    -6.471E+01 8.461E-01 4.058E+03
 ETOT  3  -1047.9995229739     6.013E+01 2.855E+00 2.351E+02
 ETOT  4  -1057.6586217148    -9.659E+00 8.743E-01 4.122E+02
 ETOT  5  -1058.1977292477    -5.391E-01 6.803E-02 3.227E+02
 ETOT  6  -1058.3036404646    -1.059E-01 1.692E-02 3.222E+02
 ETOT  7  -1058.1250071812     1.786E-01 3.563E-02 3.095E+02
 ETOT  8  -1058.3813510033    -2.563E-01 1.038E-01 3.154E+02
 ETOT  9  -1058.2955250657     8.583E-02 5.584E-02 3.085E+02
 ETOT 10  -1093.8606164347    -3.557E+01 1.013E+00 2.584E+03
 ETOT 11  -1072.7949223673     2.107E+01 3.923E-01 9.191E+02
 ETOT 12  -1075.2793514738    -2.484E+00 5.825E-01 1.449E+03
 ETOT 13  -1071.2767407611     4.003E+00 1.228E-01 7.159E+02
 ETOT 14  -1055.0914929033     1.619E+01 1.110E+00 1.357E+02
 ETOT 15  -1057.1095971304    -2.018E+00 1.461E-01 1.812E+02
 ETOT 16  -1056.8110072407     2.986E-01 2.372E-02 1.492E+02
 ETOT 17  -1056.5577305129     2.533E-01 2.929E-02 1.217E+02
 ETOT 18  -1056.1616272648     3.961E-01 3.309E-03 9.279E+01
 ETOT 19  -1056.0401358769     1.215E-01 1.182E-02 4.870E+01
 ETOT 20  -1055.1595758097     8.806E-01 2.911E-02 1.327E+01
 ETOT 21  -1055.0939692535     6.561E-02 5.113E-02 3.033E+00
 ETOT 22  -1055.0714072364     2.256E-02 6.214E-02 3.312E-01
 ETOT 23  -1055.0666257722     4.781E-03 1.558E-02 9.614E-02
 ETOT 24  -1055.0633385367     3.287E-03 1.968E-03 2.929E-02
 ETOT 25  -1055.0622086514     1.130E-03 1.163E-03 1.541E-02
 ETOT 26  -1055.0610219001     1.187E-03 4.007E-03 6.599E-03
 ETOT 27  -1055.0604984642     5.234E-04 3.968E-03 3.046E-03
 ETOT 28  -1055.0602154134     2.831E-04 1.938E-03 1.277E-03
 ETOT 29  -1055.0601681749     4.724E-05 1.962E-03 3.672E-04
 ETOT 30  -1055.0601988698    -3.069E-05 1.504E-03 1.098E-04
 ETOT 31  -1055.0602180224    -1.915E-05 1.875E-03 5.648E-05
 ETOT 32  -1055.0602362902    -1.827E-05 1.823E-03 2.861E-05
 ETOT 33  -1055.0602561239    -1.983E-05 1.257E-03 5.692E-06
 ETOT 34  -1055.0602615532    -5.429E-06 6.171E-04 6.102E-07
 ETOT 35  -1055.0602621067    -5.535E-07 3.469E-04 7.057E-08
 ETOT 36  -1055.0602621687    -6.204E-08 2.778E-04 1.402E-08
 ETOT 37  -1055.0602621814    -1.272E-08 8.422E-05 3.883E-09
 ETOT 38  -1055.0602621838    -2.387E-09 1.776E-04 1.323E-09
 ETOT 39  -1055.0602621846    -8.281E-10 6.986E-05 3.906E-10
 ETOT 40  -1055.0602621848    -2.062E-10 1.665E-04 7.070E-11
 ETOT 41  -1055.0602621849    -3.070E-11 6.081E-05 1.134E-11
 ETOT 42  -1055.0602621849    -5.457E-11 1.435E-04 2.096E-12
 ETOT 43  -1055.0602621849     1.796E-11 4.893E-05 1.080E-12
 ETOT 44  -1055.0602621849     1.432E-11 1.134E-04 5.283E-13
 ETOT 45  -1055.0602621849    -4.206E-11 3.676E-05 2.869E-13
 ETOT 46  -1055.0602621849     7.276E-12 8.377E-05 1.105E-13
 ETOT 47  -1055.0602621849    -2.092E-11 2.619E-05 2.035E-14
 ETOT 48  -1055.0602621849     2.274E-12 5.892E-05 3.325E-15
 ETOT 49  -1055.0602621849     3.524E-11 1.794E-05 1.199E-15
 ETOT 50  -1055.0602621849    -7.276E-12 4.003E-05 4.190E-16
 ETOT 51  -1055.0602621849     2.774E-11 1.196E-05 1.401E-16
 ETOT 52  -1055.0602621849     5.002E-12 2.655E-05 2.267E-17
 ETOT 53  -1055.0602621849    -2.660E-11 7.833E-06 3.968E-18
 ETOT 54  -1055.0602621849     1.819E-12 1.732E-05 9.114E-19
 ETOT 55  -1055.0602621850    -4.502E-11 5.065E-06 3.432E-19
 ETOT 56  -1055.0602621849     8.640E-12 1.118E-05 6.068E-20
 ETOT 57  -1055.0602621849     6.162E-11 3.248E-06 1.763E-20
 ETOT 58  -1055.0602621849    -1.342E-11 7.160E-06 8.894E-21
 ETOT 59  -1055.0602621849     9.095E-13 2.072E-06 2.904E-21
 ETOT 60  -1055.0602621849     1.774E-11 4.565E-06 1.197E-21
 ETOT 61  -1055.0602621849    -7.731E-12 1.317E-06 7.270E-22
 ETOT 62  -1055.0602621849     2.956E-12 2.901E-06 9.042E-22
 ETOT 63  -1055.0602621849     2.274E-13 8.348E-07 8.253E-22
 ETOT 64  -1055.0602621849    -9.095E-13 1.839E-06 8.719E-22
 ETOT 65  -1055.0602621849     1.364E-11 5.285E-07 5.808E-22
 ETOT 66  -1055.0602621849    -6.821E-13 1.164E-06 3.992E-22
 ETOT 67  -1055.0602621849     4.547E-12 3.342E-07 2.507E-22
 ETOT 68  -1055.0602621849    -5.230E-12 7.363E-07 1.401E-22
 ETOT 69  -1055.0602621849     8.640E-12 2.112E-07 4.086E-23
 ETOT 70  -1055.0602621849    -1.592E-12 4.653E-07 1.985E-23
 ETOT 71  -1055.0602621849    -6.821E-13 1.334E-07 1.392E-23
 ETOT 72  -1055.0602621849     1.228E-11 2.939E-07 4.202E-24
 ETOT 73  -1055.0602621849    -5.002E-12 8.424E-08 1.542E-24
 ETOT 74  -1055.0602621849     1.364E-12 1.856E-07 2.050E-24
 ETOT 75  -1055.0602621849     2.274E-13 5.318E-08 1.874E-24
 ETOT 76  -1055.0602621849     9.095E-13 1.172E-07 2.009E-24
 ETOT 77  -1055.0602621849    -2.956E-12 3.357E-08 1.609E-24
 ETOT 78  -1055.0602621849     6.821E-13 7.395E-08 1.688E-24
 ETOT 79  -1055.0602621849    -2.274E-12 2.119E-08 1.188E-24
 ETOT 80  -1055.0602621849    -4.547E-13 4.667E-08 7.273E-25
 ETOT 81  -1055.0602621849     1.364E-12 1.337E-08 5.843E-25
 ETOT 82  -1055.0602621849     2.274E-13 2.945E-08 3.793E-25
 ETOT 83  -1055.0602621849    -6.821E-13 8.439E-09 7.219E-26
 ETOT 84  -1055.0602621849     1.137E-12 1.858E-08 1.888E-26
 ETOT 85  -1055.0602621849    -4.547E-13 5.325E-09 1.382E-26
 ETOT 86  -1055.0602621849     0.000E+00 1.172E-08 1.044E-26
 ETOT 87  -1055.0602621849    -6.821E-13 3.361E-09 9.950E-27
 ETOT 88  -1055.0602621849    -6.821E-13 7.398E-09 8.591E-27
 ETOT 89  -1055.0602621849     2.274E-13 2.121E-09 1.311E-26
 ETOT 90  -1055.0602621849     2.274E-13 4.667E-09 8.515E-27
 ETOT 91  -1055.0602621849     6.821E-13 1.338E-09 9.482E-27
 ETOT 92  -1055.0602621849    -6.821E-13 2.945E-09 1.273E-26
 ETOT 93  -1055.0602621849    -2.274E-13 8.445E-10 8.011E-27
 ETOT 94  -1055.0602621849     0.000E+00 1.858E-09 9.091E-27
 ETOT 95  -1055.0602621849     0.000E+00 5.330E-10 5.202E-27
 ETOT 96  -1055.0602621849     4.547E-13 1.172E-09 1.960E-26
 ETOT 97  -1055.0602621849    -2.274E-13 3.363E-10 5.370E-27
 ETOT 98  -1055.0602621849    -2.274E-13 7.394E-10 8.130E-27
 ETOT 99  -1055.0602621849     4.547E-13 2.122E-10 4.969E-27
 ETOT  100  -1055.0602621849     0.000E+00 4.665E-10 6.353E-27
 ETOT  101  -1055.0602621849    -6.821E-13 1.339E-10 9.766E-27
 ETOT  102  -1055.0602621849     4.547E-13 2.943E-10 4.824E-27
 ETOT  103  -1055.0602621849     0.000E+00 8.453E-11 1.371E-26
 ETOT  104  -1055.0602621849    -4.547E-13 1.857E-10 7.230E-27
 ETOT  105  -1055.0602621849     6.821E-13 5.334E-11 4.451E-27
 ETOT  106  -1055.0602621849     0.000E+00 1.171E-10 4.815E-27
 ETOT  107  -1055.0602621849     2.274E-13 3.366E-11 1.998E-26
 ETOT  108  -1055.0602621849    -9.095E-13 7.391E-11 1.444E-26
 ETOT  109  -1055.0602621849     2.274E-13 2.125E-11 5.897E-27
 ETOT  110  -1055.0602621849     6.821E-13 4.663E-11 4.753E-27
 ETOT  111  -1055.0602621849    -4.547E-13 1.341E-11 6.436E-27
 ETOT  112  -1055.0602621849     2.274E-13 2.942E-11 5.520E-27
 ETOT  113  -1055.0602621849    -2.274E-13 8.462E-12 3.468E-27
 ETOT  114  -1055.0602621849    -2.274E-13 1.856E-11 5.448E-27
 ETOT  115  -1055.0602621849     2.274E-13 5.340E-12 6.232E-27
 ETOT  116  -1055.0602621849     0.000E+00 1.171E-11 5.139E-27
 ETOT  117  -1055.0602621849    -4.547E-13 3.370E-12 4.146E-27
 ETOT  118  -1055.0602621849     9.095E-13 7.388E-12 8.431E-27
 ETOT  119  -1055.0602621849    -4.547E-13 2.127E-12 3.220E-27
 ETOT  120  -1055.0602621849     0.000E+00 4.661E-12 3.497E-27
 ETOT  121  -1055.0602621849     4.547E-13 1.343E-12 3.811E-27
 ETOT  122  -1055.0602621849    -2.274E-13 2.941E-12 5.467E-27
 ETOT  123  -1055.0602621849     2.274E-13 8.473E-13 8.832E-27
 ETOT  124  -1055.0602621849    -6.821E-13 1.856E-12 2.962E-27
 ETOT  125  -1055.0602621849     9.095E-13 5.348E-13 1.390E-26
 ETOT  126  -1055.0602621849     0.000E+00 1.171E-12 7.601E-27
 ETOT  127  -1055.0602621849    -4.547E-13 3.375E-13 2.009E-26
 ETOT  128  -1055.0602621849    -2.274E-13 7.388E-13 4.347E-27
 ETOT  129  -1055.0602621849     9.095E-13 2.130E-13 7.820E-27
 ETOT  130  -1055.0602621849    -4.547E-13 4.661E-13 8.311E-27
 ETOT  131  -1055.0602621849     0.000E+00 1.345E-13 3.543E-27
 ETOT  132  -1055.0602621849     2.274E-13 2.941E-13 7.098E-27
 ETOT  133  -1055.0602621849    -4.547E-13 8.487E-14 7.155E-27
 ETOT  134  -1055.0602621849    -2.274E-13 1.856E-13 3.646E-27
 ETOT  135  -1055.0602621849     2.274E-13 5.357E-14 3.802E-27
 ETOT  136  -1055.0602621849    -9.095E-13 1.171E-13 8.613E-27
 ETOT  137  -1055.0602621849     4.547E-13 3.381E-14 1.053E-26
 ETOT  138  -1055.0602621849    -2.274E-13 7.390E-14 2.981E-27
 ETOT  139  -1055.0602621849     6.821E-13 2.134E-14 2.958E-27
 ETOT  140  -1055.0602621849     0.000E+00 4.663E-14 2.939E-27
 ETOT  141  -1055.0602621849    -2.274E-13 1.347E-14 3.210E-27
 ETOT  142  -1055.0602621849     2.274E-13 2.942E-14 3.777E-27
 ETOT  143  -1055.0602621849     2.274E-13 8.503E-15 5.888E-27
 ETOT  144  -1055.0602621849     2.274E-13 1.857E-14 6.836E-27
 ETOT  145  -1055.0602621849    -4.547E-13 5.367E-15 3.060E-27
 ETOT  146  -1055.0602621849    -2.274E-13 1.172E-14 2.914E-27
 ETOT  147  -1055.0602621849     9.095E-13 3.388E-15 3.003E-27
 ETOT  148  -1055.0602621849     0.000E+00 7.394E-15 3.465E-27
 ETOT  149  -1055.0602621849    -6.821E-13 2.138E-15 4.279E-27
 ETOT  150  -1055.0602621849    -1.364E-12 4.666E-15 9.884E-27
 ETOT  151  -1055.0602621849     1.819E-12 1.350E-15 6.231E-27
 ETOT  152  -1055.0602621849    -2.274E-13 2.945E-15 3.433E-27
 ETOT  153  -1055.0602621849    -2.274E-13 8.521E-16 7.010E-27
 ETOT  154  -1055.0602621849    -2.274E-13 1.858E-15 3.790E-27
 ETOT  155  -1055.0602621849    -9.095E-13 5.379E-16 5.463E-27
 ETOT  156  -1055.0602621849     9.095E-13 1.173E-15 3.873E-27
 ETOT  157  -1055.0602621849    -4.547E-13 3.395E-16 6.809E-27
 ETOT  158  -1055.0602621849     2.274E-13 7.401E-16 7.224E-27
 ETOT  159  -1055.0602621849     2.274E-13 2.143E-16 3.060E-27
 ETOT  160  -1055.0602621849     2.274E-13 4.671E-16 8.221E-27
 ETOT  161  -1055.0602621849    -6.821E-13 1.353E-16 7.767E-27
 ETOT  162  -1055.0602621849     0.000E+00 2.948E-16 2.349E-27
 ETOT  163  -1055.0602621849     4.547E-13 8.541E-17 4.138E-27
 ETOT  164  -1055.0602621849    -4.547E-13 1.861E-16 3.562E-27
 ETOT  165  -1055.0602621849     4.547E-13 5.392E-17 3.257E-27
 ETOT  166  -1055.0602621849     4.547E-13 1.174E-16 9.405E-27
 ETOT  167  -1055.0602621849    -4.547E-13 3.404E-17 6.492E-27
 ETOT  168  -1055.0602621849     0.000E+00 7.411E-17 2.810E-27
 ETOT  169  -1055.0602621849     4.547E-13 2.149E-17 5.955E-27
 ETOT  170  -1055.0602621849     2.274E-13 4.678E-17 5.507E-27
 ETOT  171  -1055.0602621849    -1.137E-12 1.357E-17 8.988E-27
 ETOT  172  -1055.0602621849     4.547E-13 2.953E-17 5.628E-27
 ETOT  173  -1055.0602621849    -2.274E-13 8.565E-18 2.852E-27
 ETOT  174  -1055.0602621849    -2.274E-13 1.864E-17 3.718E-27
 ETOT  175  -1055.0602621849     4.547E-13 5.407E-18 1.082E-26
 ETOT  176  -1055.0602621849    -1.364E-12 1.176E-17 5.803E-27
 ETOT  177  -1055.0602621849     1.364E-12 3.414E-18 5.026E-27
 ETOT  178  -1055.0602621849    -2.274E-13 7.425E-18 9.471E-27
 ETOT  179  -1055.0602621849     1.364E-12 2.155E-18 3.509E-27
 ETOT  180  -1055.0602621849    -1.819E-12 4.687E-18 4.770E-27
 ETOT  181  -1055.0602621849     6.821E-13 1.361E-18 3.182E-27
 ETOT  182  -1055.0602621849    -2.274E-13 2.958E-18 1.635E-26
 ETOT  183  -1055.0602621849     1.137E-12 8.591E-19 6.396E-27
 ETOT  184  -1055.0602621849    -2.274E-13 1.867E-18 3.966E-27
 ETOT  185  -1055.0602621849     0.000E+00 5.424E-19 4.554E-27
 ETOT  186  -1055.0602621849    -6.821E-13 1.179E-18 3.714E-27
 ETOT  187  -1055.0602621849     1.137E-12 3.425E-19 6.548E-27
 ETOT  188  -1055.0602621849    -1.137E-12 7.442E-19 6.444E-27
 ETOT  189  -1055.0602621849     4.547E-13 2.162E-19 4.556E-27
 ETOT  190  -1055.0602621849     0.000E+00 4.698E-19 2.907E-27
 ETOT  191  -1055.0602621849     2.274E-13 1.365E-19 2.733E-27
 ETOT  192  -1055.0602621849    -9.095E-13 2.966E-19 2.687E-27
 ETOT  193  -1055.0602621849     4.547E-13 8.621E-20 5.941E-27
 ETOT  194  -1055.0602621849    -2.274E-13 1.872E-19 7.266E-27
 ETOT  195  -1055.0602621849    -2.274E-13 5.444E-20 3.029E-27
 ETOT  196  -1055.0602621849     0.000E+00 1.182E-19 5.908E-27
 ETOT  197  -1055.0602621849     0.000E+00 3.437E-20 1.172E-26
 ETOT  198  -1055.0602621849    -6.821E-13 7.463E-20 1.079E-26
 ETOT  199  -1055.0602621849     9.095E-13 2.170E-20 5.243E-27
 ETOT  200  -1055.0602621849     0.000E+00 4.712E-20 3.401E-27
 ETOT  201  -1055.0602621849     2.274E-13 9.988E-21 4.047E-27

 At SCF step  201   max residual=  9.99E-21 < tolwfr=  1.00E-20 =>converged.

 Cartesian components of stress tensor (hartree/bohr^3)
  sigma(1 1)=  1.38314581E-02  sigma(3 2)=  0.00000000E+00
  sigma(2 2)=  1.38314581E-02  sigma(3 1)=  0.00000000E+00
  sigma(3 3)=  1.38763205E-02  sigma(2 1)=  0.00000000E+00


--- !ResultsGS
iteration_state: {dtset: 1, }
comment   : Summary of ground state results
lattice_vectors:
- [  7.7624317,   0.0000000,   0.0000000, ]
- [  0.0000000,   7.7624317,   0.0000000, ]
- [  0.0000000,   0.0000000,  34.6505412, ]
lattice_lengths: [   7.76243,    7.76243,   34.65054, ]
lattice_angles: [ 90.000,  90.000,  90.000, ] # degrees, (23, 13, 12)
lattice_volume:   2.0878803E+03
convergence: {deltae:  2.274E-13, res2:  4.047E-27, residm:  9.988E-21, diffor: null, }
etotal    :  -1.05506026E+03
entropy   :   0.00000000E+00
fermie    :   5.53091652E-02
cartesian_stress_tensor: # hartree/bohr^3
- [  1.38314581E-02,   0.00000000E+00,   0.00000000E+00, ]
- [  0.00000000E+00,   1.38314581E-02,   0.00000000E+00, ]
- [  0.00000000E+00,   0.00000000E+00,   1.38763205E-02, ]
pressure_GPa:  -4.0738E+02
xred      :
- [  5.0000E-01,   0.0000E+00,   2.5449E-01, Sn]
- [  0.0000E+00,   5.0000E-01,   4.0445E-01, Sn]
- [  5.0000E-01,   0.0000E+00,   4.0272E-01, Se]
- [  0.0000E+00,   5.0000E-01,   2.5623E-01, Se]
- [  5.0000E-01,   0.0000E+00,   5.8244E-01, Se]
- [  0.0000E+00,   5.0000E-01,   7.4551E-01, Se]
- [  5.0000E-01,   5.0000E-01,   6.6397E-01, Zn]
- [  0.0000E+00,   0.0000E+00,   6.6397E-01, Zn]
cartesian_forces: # hartree/bohr
- [ -0.00000000E+00,  -0.00000000E+00,  -4.52902290E-03, ]
- [ -0.00000000E+00,  -0.00000000E+00,   2.74961570E-03, ]
- [ -0.00000000E+00,  -0.00000000E+00,  -7.36427294E-03, ]
- [ -0.00000000E+00,  -0.00000000E+00,  -1.14388087E-03, ]
- [ -0.00000000E+00,  -0.00000000E+00,   9.04555636E-03, ]
- [ -0.00000000E+00,  -0.00000000E+00,  -1.25585427E-02, ]
- [ -0.00000000E+00,  -0.00000000E+00,   6.90027366E-03, ]
- [ -0.00000000E+00,  -0.00000000E+00,   6.90027366E-03, ]
force_length_stats: {min:   1.14388087E-03, max:   1.25585427E-02, mean:   6.39892984E-03, }
...

 Integrated electronic density in atomic spheres:
 ------------------------------------------------
 Atom  Sphere_radius  Integrated_density
    1        2.00000         10.56568775
    2        2.00000         10.54115783
    3        2.00000         13.27860505
    4        2.00000         13.28146391
    5        2.00000         13.24973633
    6        2.00000         13.28395554
    7        2.00000         18.09514319
    8        2.00000         18.09514319
================================================================================

 ----iterations are completed or convergence reached----

 Mean square residual over all n,k,spin=   44.705E-22; max=  99.884E-22
 reduced coordinates (array xred) for    8 atoms
       0.500000000000      0.000000000000      0.254494000000
       0.000000000000      0.500000000000      0.404449000000
       0.500000000000      0.000000000000      0.402717000000
       0.000000000000      0.500000000000      0.256226000000
       0.500000000000      0.000000000000      0.582441000000
       0.000000000000      0.500000000000      0.745506000000
       0.500000000000      0.500000000000      0.663974000000
       0.000000000000      0.000000000000      0.663974000000
 rms dE/dt=  1.5071E-01; max dE/dt=  3.6203E-01; dE/dt below (all hartree)
    1       0.000000000000      0.000000000000      0.083807022285
    2       0.000000000000      0.000000000000     -0.168401744558
    3       0.000000000000      0.000000000000      0.182049970646
    4       0.000000000000      0.000000000000     -0.033489981352
    5       0.000000000000      0.000000000000     -0.386559496111
    6       0.000000000000      0.000000000000      0.362034227646
    7       0.000000000000      0.000000000000     -0.312224289268
    8       0.000000000000      0.000000000000     -0.312224289268

 cartesian coordinates (angstrom) at end:
    1      2.05385096425820     0.00000000000000     4.66647239763049
    2      0.00000000000000     2.05385096425820     7.41608876731576
    3      2.05385096425820     0.00000000000000     7.38433033610442
    4      0.00000000000000     2.05385096425820     4.69823082884182
    5      2.05385096425820     0.00000000000000    10.67979932630358
    6      0.00000000000000     2.05385096425820    13.66980428327552
    7      2.05385096425820     2.05385096425820    12.17481097292788
    8      0.00000000000000     0.00000000000000    12.17481097292788

 cartesian forces (hartree/bohr) at end:
    1     -0.00000000000000    -0.00000000000000    -0.00452902290240
    2     -0.00000000000000    -0.00000000000000     0.00274961569708
    3     -0.00000000000000    -0.00000000000000    -0.00736427294154
    4     -0.00000000000000    -0.00000000000000    -0.00114388086725
    5     -0.00000000000000    -0.00000000000000     0.00904555636201
    6     -0.00000000000000    -0.00000000000000    -0.01255854265981
    7     -0.00000000000000    -0.00000000000000     0.00690027365596
    8     -0.00000000000000    -0.00000000000000     0.00690027365596
 frms,max,avg= 4.1752248E-03 1.2558543E-02   0.000E+00  0.000E+00  2.110E-03 h/b

 cartesian forces (eV/Angstrom) at end:
    1     -0.00000000000000    -0.00000000000000    -0.23289170188620
    2     -0.00000000000000    -0.00000000000000     0.14139091212941
    3     -0.00000000000000    -0.00000000000000    -0.37868610856474
    4     -0.00000000000000    -0.00000000000000    -0.05882071424016
    5     -0.00000000000000    -0.00000000000000     0.46514117085589
    6     -0.00000000000000    -0.00000000000000    -0.64578617425523
    7     -0.00000000000000    -0.00000000000000     0.35482630798053
    8     -0.00000000000000    -0.00000000000000     0.35482630798053
 frms,max,avg= 2.1469867E-01 6.4578617E-01   0.000E+00  0.000E+00  1.085E-01 e/A
 length scales=  7.762431680422  7.762431680422  7.762431680422 bohr
              =  4.107701928516  4.107701928516  4.107701928516 angstroms
 prteigrs : about to open file Cs2TiI6o_DS1_EIG
 Fermi (or HOMO) energy (hartree) =   0.05531   Average Vxc (hartree)=  -0.25695
 Eigenvalues (hartree) for nkpt=  10  k points:
 kpt#   1, nband= 74, wtk=  0.06250, kpt=  0.0625  0.0625  0.5000 (reduced coord)
  -4.80726   -4.80725   -3.04408   -3.04386   -3.04185   -3.04180   -3.04176   -3.04138
  -1.75607   -1.75480   -1.75400   -1.75340   -1.75302   -1.75118   -1.75006   -1.74915
  -1.74600   -1.74588   -1.72562   -1.72461   -1.72434   -1.72379   -1.72302   -1.72272
  -1.72044   -1.71995   -1.71701   -1.71506   -0.73390   -0.73302   -0.73277   -0.73196
  -0.73191   -0.73070   -0.73014   -0.72998   -0.72897   -0.72884   -0.47945   -0.46341
  -0.45239   -0.42120   -0.26932   -0.26749   -0.26689   -0.26604   -0.26583   -0.25459
  -0.25376   -0.25339   -0.24816   -0.24573   -0.17906   -0.15647   -0.14165   -0.09043
  -0.08480   -0.07908   -0.07617   -0.05998   -0.03299   -0.02415   -0.01420   -0.01131
  -0.01078    0.03237    0.07423    0.08749    0.12006    0.13269    0.19306    0.19490
   0.20750    0.21556
 prteigrs : prtvol=0 or 1, do not print more k-points.


--- !EnergyTerms
iteration_state     : {dtset: 1, }
comment             : Components of total free energy in Hartree
kinetic             :  5.73386636942855E+02
hartree             :  1.14963482468712E+03
xc                  : -1.83753532759321E+02
Ewald energy        :  2.72288370272812E+02
psp_core            :  1.49698195633781E+01
local_psp           : -2.54533079870941E+03
non_local_psp       : -3.36188092868942E+02
VdWaals_dft_d       : -6.74893134385723E-02
total_energy        : -1.05506026218495E+03
...


--- !EnergyTermsDC
iteration_state     : {dtset: 1, }
comment             : '"Double-counting" decomposition of free energy'
band_energy         : -1.50780863514259E+02
Ewald energy        :  2.72288370272812E+02
psp_core            :  1.49698195633781E+01
xc_dc               : -1.19147009919335E+03
VdWaals_dft_d       : -6.74893134385723E-02
total_energy_dc     : -1.05506026218486E+03
...


 Cartesian components of stress tensor (hartree/bohr^3)
  sigma(1 1)=  1.38314581E-02  sigma(3 2)=  0.00000000E+00
  sigma(2 2)=  1.38314581E-02  sigma(3 1)=  0.00000000E+00
  sigma(3 3)=  1.38763205E-02  sigma(2 1)=  0.00000000E+00

-Cartesian components of stress tensor (GPa)         [Pressure= -4.0738E+02 GPa]
- sigma(1 1)=  4.06935479E+02  sigma(3 2)=  0.00000000E+00
- sigma(2 2)=  4.06935479E+02  sigma(3 1)=  0.00000000E+00
- sigma(3 3)=  4.08255376E+02  sigma(2 1)=  0.00000000E+00

================================================================================
== DATASET  2 ==================================================================
-   mpi_nproc: 6, omp_nthreads: -1 (-1 if OMP is not activated)


--- !DatasetInfo
iteration_state: {dtset: 2, }
dimensions: {natom: 8, nkpt: 57, mband: 74, nsppol: 1, nspinor: 1, nspden: 1, mpw: 10706, }
cutoff_energies: {ecut:  22.5, pawecutdg:  -1.0, }
electrons: {nelect:   1.32000000E+02, charge:   0.00000000E+00, occopt:   1.00000000E+00, tsmear:   1.00000000E-02, }
meta: {optdriver: 0, ionmov: 0, optcell: 0, iscf: -2, paral_kgb: 0, }
...

 mkfilename : getden/=0, take file _DEN from output of DATASET   1.

 Real(R)+Recip(G) space primitive vectors, cartesian coordinates (Bohr,Bohr^-1):
 R(1)=  7.7624317  0.0000000  0.0000000  G(1)=  0.1288256  0.0000000  0.0000000
 R(2)=  0.0000000  7.7624317  0.0000000  G(2)=  0.0000000  0.1288256  0.0000000
 R(3)=  0.0000000  0.0000000 34.6505412  G(3)=  0.0000000  0.0000000  0.0288596
 Unit cell volume ucvol=  2.0878803E+03 bohr^3
 Angles (23,13,12)=  9.00000000E+01  9.00000000E+01  9.00000000E+01 degrees

 getcut: wavevector=  0.0000  0.0000  0.0000  ngfft=  36  36 150
         ecut(hartree)=     22.500   => boxcut(ratio)=   2.02733
--------------------------------------------------------------------------------


================================================================================
 prteigrs : about to open file Cs2TiI6o_DS2_EIG
 Non-SCF case, kpt    1 (  0.50000  0.50000  0.00000), residuals and eigenvalues=
  4.78E-21  3.80E-21  2.35E-21  9.74E-21  4.08E-21  1.93E-21  2.64E-21  6.62E-22
  6.66E-21  9.28E-21  4.35E-21  5.29E-21  5.29E-21  4.61E-21  8.48E-21  7.41E-21
  1.97E-21  6.23E-21  2.12E-21  2.41E-21  4.63E-21  4.72E-21  5.01E-21  4.10E-21
  3.09E-21  2.98E-21  4.25E-21  4.09E-21  3.09E-21  2.96E-21  2.22E-21  2.46E-21
  7.22E-21  5.52E-21  4.31E-21  2.42E-21  9.71E-21  4.82E-21  7.10E-21  6.72E-21
  3.22E-21  4.19E-21  9.29E-21  3.66E-21  3.80E-21  3.02E-21  3.62E-21  7.05E-21
  5.29E-21  7.60E-21  9.85E-21  5.17E-21  9.15E-21  7.55E-21  4.34E-21  3.66E-21
  5.12E-21  9.69E-21  8.56E-21  3.12E-21  5.45E-21  1.00E-20  7.48E-21  4.57E-21
  4.10E-21  2.22E-21  8.18E-21  3.91E-21  7.52E-21  2.81E-21  3.67E-21  7.55E-21
  1.57E-14  2.03E-13
 -4.8073E+00 -4.8073E+00 -3.0427E+00 -3.0426E+00 -3.0424E+00 -3.0424E+00
 -3.0410E+00 -3.0410E+00 -1.7539E+00 -1.7534E+00 -1.7531E+00 -1.7531E+00
 -1.7531E+00 -1.7503E+00 -1.7481E+00 -1.7468E+00 -1.7451E+00 -1.7451E+00
 -1.7229E+00 -1.7227E+00 -1.7227E+00 -1.7224E+00 -1.7219E+00 -1.7215E+00
 -1.7199E+00 -1.7197E+00 -1.7145E+00 -1.7145E+00 -7.3411E-01 -7.3291E-01
 -7.3196E-01 -7.3196E-01 -7.3183E-01 -7.3099E-01 -7.2950E-01 -7.2906E-01
 -7.2894E-01 -7.2894E-01 -4.5133E-01 -4.4739E-01 -4.1369E-01 -4.1292E-01
 -2.7143E-01 -2.7143E-01 -2.5894E-01 -2.5894E-01 -2.5264E-01 -2.5264E-01
 -2.5095E-01 -2.5087E-01 -2.5083E-01 -2.5073E-01 -1.7386E-01 -1.7278E-01
 -1.6104E-01 -1.6104E-01 -1.4669E-01 -1.4669E-01 -9.5970E-02 -9.5970E-02
 -9.0714E-02 -8.1928E-02 -8.1450E-02 -8.1450E-02 -1.9872E-02 -1.2112E-02
  1.4045E-01  1.4487E-01  1.4487E-01  1.4678E-01  1.8447E-01  1.9010E-01
  2.2386E-01  2.2386E-01
  prteigrs : nnsclo,ikpt=  300    1 max resid (incl. the buffer)=  2.02962E-13
 Non-SCF case, kpt    2 (  0.45000  0.45000  0.05000), residuals and eigenvalues=
  2.15E-21  7.93E-21  1.59E-21  6.82E-22  6.31E-22  7.50E-21  6.75E-22  6.23E-22
  5.73E-21  7.91E-21  3.26E-21  6.59E-21  1.37E-21  7.16E-21  8.90E-21  6.65E-21
  4.14E-21  4.49E-21  2.73E-21  9.23E-21  2.71E-21  5.64E-21  2.49E-21  2.31E-21
  7.23E-21  2.44E-21  3.74E-21  5.12E-21  3.02E-21  5.06E-21  8.47E-21  5.30E-21
  4.81E-21  9.24E-21  3.70E-21  2.35E-21  6.24E-21  7.39E-21  6.46E-21  3.72E-21
  2.99E-21  7.29E-21  5.09E-21  7.90E-21  7.78E-21  4.24E-21  4.72E-21  9.57E-21
  5.10E-21  6.99E-21  9.53E-21  3.44E-21  4.91E-21  7.85E-21  6.52E-21  4.67E-21
  6.78E-21  5.47E-21  5.25E-21  3.35E-21  3.30E-21  7.17E-21  8.06E-21  3.32E-21
  7.31E-21  6.39E-21  7.22E-21  7.94E-21  8.68E-21  7.77E-21  2.95E-21  8.36E-21
  9.40E-13  3.41E-11
 -4.8073E+00 -4.8073E+00 -3.0435E+00 -3.0429E+00 -3.0428E+00 -3.0424E+00
 -3.0422E+00 -3.0418E+00 -1.7555E+00 -1.7547E+00 -1.7538E+00 -1.7536E+00
 -1.7526E+00 -1.7511E+00 -1.7504E+00 -1.7500E+00 -1.7490E+00 -1.7472E+00
 -1.7262E+00 -1.7252E+00 -1.7251E+00 -1.7237E+00 -1.7228E+00 -1.7222E+00
 -1.7202E+00 -1.7197E+00 -1.7192E+00 -1.7169E+00 -7.3407E-01 -7.3301E-01
 -7.3257E-01 -7.3229E-01 -7.3199E-01 -7.3115E-01 -7.2981E-01 -7.2957E-01
 -7.2932E-01 -7.2918E-01 -4.5187E-01 -4.4786E-01 -4.1499E-01 -4.1329E-01
 -2.7203E-01 -2.7045E-01 -2.5983E-01 -2.5940E-01 -2.5491E-01 -2.5301E-01
 -2.5297E-01 -2.5263E-01 -2.5173E-01 -2.5163E-01 -1.8156E-01 -1.7909E-01
 -1.6121E-01 -1.5993E-01 -1.4535E-01 -1.3351E-01 -9.5367E-02 -9.4682E-02
 -8.7457E-02 -8.2208E-02 -8.0048E-02 -7.1471E-02 -2.0586E-02 -1.1678E-02
  1.3762E-01  1.4521E-01  1.4674E-01  1.4980E-01  1.8170E-01  1.8826E-01
  2.2491E-01  2.3042E-01
  prteigrs : nnsclo,ikpt=  300    2 max resid (incl. the buffer)=  3.41251E-11
 Non-SCF case, kpt    3 (  0.40000  0.40000  0.10000), residuals and eigenvalues=
  4.47E-21  4.11E-21  5.59E-21  7.43E-22  7.63E-21  3.16E-21  2.61E-21  6.34E-21
  2.38E-21  6.49E-21  3.38E-21  5.08E-21  3.85E-21  2.78E-21  8.56E-21  4.91E-21
  4.36E-21  3.16E-21  2.15E-21  6.42E-21  6.38E-21  2.72E-21  9.80E-21  6.06E-21
  3.47E-21  4.08E-21  3.93E-21  8.07E-21  5.09E-21  4.43E-21  6.41E-21  7.36E-21
  6.95E-21  8.38E-21  7.08E-21  3.38E-21  5.45E-21  4.68E-21  3.17E-21  8.32E-21
  4.72E-21  6.80E-21  3.38E-21  8.44E-21  4.91E-21  4.02E-21  4.62E-21  7.30E-21
  3.52E-21  9.51E-21  6.19E-21  7.63E-21  9.42E-21  5.53E-21  1.79E-21  8.28E-21
  6.26E-21  4.00E-21  3.58E-21  2.56E-21  7.02E-21  3.73E-21  9.05E-21  7.87E-21
  4.11E-21  6.55E-21  9.13E-21  9.50E-21  2.11E-21  7.57E-21  1.67E-21  6.45E-21
  1.47E-10  1.61E-07
 -4.8073E+00 -4.8073E+00 -3.0438E+00 -3.0431E+00 -3.0429E+00 -3.0427E+00
 -3.0425E+00 -3.0419E+00 -1.7558E+00 -1.7558E+00 -1.7549E+00 -1.7540E+00
 -1.7535E+00 -1.7513E+00 -1.7509E+00 -1.7504E+00 -1.7489E+00 -1.7488E+00
 -1.7268E+00 -1.7264E+00 -1.7255E+00 -1.7237E+00 -1.7233E+00 -1.7224E+00
 -1.7212E+00 -1.7204E+00 -1.7198E+00 -1.7182E+00 -7.3404E-01 -7.3316E-01
 -7.3265E-01 -7.3251E-01 -7.3211E-01 -7.3109E-01 -7.2994E-01 -7.2964E-01
 -7.2951E-01 -7.2931E-01 -4.5363E-01 -4.4877E-01 -4.1941E-01 -4.1364E-01
 -2.7273E-01 -2.6792E-01 -2.6080E-01 -2.5964E-01 -2.5758E-01 -2.5365E-01
 -2.5338E-01 -2.5290E-01 -2.5238E-01 -2.5204E-01 -1.9164E-01 -1.8995E-01
 -1.6183E-01 -1.5691E-01 -1.4136E-01 -1.1037E-01 -1.0043E-01 -9.0869E-02
 -7.8370E-02 -7.5807E-02 -6.6450E-02 -5.6207E-02 -2.4074E-02 -7.3389E-03
  1.3485E-01  1.4614E-01  1.5074E-01  1.5441E-01  1.7460E-01  1.8787E-01
  2.2856E-01  2.3580E-01
  prteigrs : nnsclo,ikpt=  300    3 max resid (incl. the buffer)=  1.61312E-07
 Non-SCF case, kpt    4 (  0.35000  0.35000  0.15000), residuals and eigenvalues=
  2.17E-21  5.84E-21  6.29E-21  3.29E-21  6.35E-21  3.19E-21  5.42E-21  5.22E-21
  2.22E-21  2.04E-21  2.86E-21  1.59E-21  1.45E-21  1.27E-21  2.28E-21  4.20E-21
  5.20E-21  3.32E-21  7.48E-21  3.37E-21  1.16E-21  3.83E-21  2.57E-21  1.70E-21
  3.55E-21  2.79E-21  2.78E-21  5.64E-21  7.01E-21  9.66E-21  9.39E-21  8.62E-21
  7.17E-21  3.43E-21  6.43E-21  9.64E-21  5.30E-21  3.90E-21  4.32E-21  2.70E-21
  8.51E-21  6.41E-21  5.01E-21  8.00E-21  7.70E-21  5.85E-21  7.25E-21  8.63E-21
  9.69E-21  5.09E-21  8.47E-21  7.74E-21  6.23E-21  5.62E-21  8.90E-21  4.08E-21
  8.22E-21  5.39E-21  8.39E-21  5.39E-21  4.71E-21  2.58E-21  2.95E-21  2.83E-21
  2.91E-21  6.11E-21  3.82E-21  3.65E-21  2.79E-21  3.03E-21  8.76E-21  7.18E-21
  7.88E-17  1.95E-06
 -4.8073E+00 -4.8072E+00 -3.0436E+00 -3.0430E+00 -3.0427E+00 -3.0422E+00
 -3.0421E+00 -3.0415E+00 -1.7551E+00 -1.7551E+00 -1.7542E+00 -1.7529E+00
 -1.7529E+00 -1.7504E+00 -1.7496E+00 -1.7488E+00 -1.7482E+00 -1.7479E+00
 -1.7264E+00 -1.7254E+00 -1.7253E+00 -1.7224E+00 -1.7219E+00 -1.7206E+00
 -1.7203E+00 -1.7198E+00 -1.7180E+00 -1.7176E+00 -7.3382E-01 -7.3308E-01
 -7.3239E-01 -7.3236E-01 -7.3198E-01 -7.3086E-01 -7.2989E-01 -7.2941E-01
 -7.2938E-01 -7.2916E-01 -4.5684E-01 -4.4961E-01 -4.2603E-01 -4.1420E-01
 -2.7274E-01 -2.6390E-01 -2.6129E-01 -2.5940E-01 -2.5903E-01 -2.5455E-01
 -2.5415E-01 -2.5295E-01 -2.5128E-01 -2.5051E-01 -2.0160E-01 -1.9482E-01
 -1.6178E-01 -1.5162E-01 -1.3487E-01 -1.0911E-01 -8.4720E-02 -8.2088E-02
 -6.8896E-02 -6.6236E-02 -5.4089E-02 -3.4214E-02 -2.5548E-02  4.1283E-03
  1.3118E-01  1.4701E-01  1.5128E-01  1.6055E-01  1.7294E-01  1.8920E-01
  2.0121E-01  2.2796E-01
  prteigrs : nnsclo,ikpt=  300    4 max resid (incl. the buffer)=  1.94551E-06
 Non-SCF case, kpt    5 (  0.30000  0.30000  0.20000), residuals and eigenvalues=
  9.10E-21  9.30E-21  5.04E-21  7.53E-21  7.84E-21  1.33E-21  7.23E-22  3.54E-21
  5.62E-21  4.65E-21  1.94E-21  1.55E-21  3.37E-21  3.19E-21  4.16E-21  2.07E-21
  3.23E-21  3.49E-21  3.29E-21  3.46E-21  2.80E-21  6.93E-21  2.84E-21  5.57E-21
  7.53E-21  4.79E-21  3.39E-21  2.52E-21  3.74E-21  8.47E-21  2.03E-21  9.20E-21
  3.58E-21  5.21E-21  4.52E-21  4.83E-21  3.05E-21  7.66E-21  9.62E-21  2.45E-21
  4.30E-21  2.96E-21  9.64E-21  3.65E-21  5.98E-21  7.80E-21  9.22E-21  3.57E-21
  8.20E-21  2.74E-21  5.78E-21  5.00E-21  2.43E-21  2.33E-21  3.84E-21  4.82E-21
  3.19E-21  8.64E-21  9.99E-21  5.12E-21  8.48E-21  2.92E-21  3.28E-21  7.29E-21
  5.61E-21  5.19E-21  8.39E-21  5.81E-21  7.28E-21  7.06E-21  9.76E-21  8.05E-21
  3.02E-18  1.01E-18
 -4.8073E+00 -4.8072E+00 -3.0434E+00 -3.0429E+00 -3.0423E+00 -3.0422E+00
 -3.0418E+00 -3.0418E+00 -1.7554E+00 -1.7542E+00 -1.7542E+00 -1.7526E+00
 -1.7515E+00 -1.7505E+00 -1.7494E+00 -1.7485E+00 -1.7482E+00 -1.7472E+00
 -1.7263E+00 -1.7250E+00 -1.7245E+00 -1.7226E+00 -1.7220E+00 -1.7211E+00
 -1.7192E+00 -1.7186E+00 -1.7185E+00 -1.7172E+00 -7.3371E-01 -7.3314E-01
 -7.3228E-01 -7.3227E-01 -7.3190E-01 -7.3079E-01 -7.2999E-01 -7.2928E-01
 -7.2923E-01 -7.2910E-01 -4.6112E-01 -4.5041E-01 -4.3377E-01 -4.1509E-01
 -2.7233E-01 -2.6173E-01 -2.6163E-01 -2.6071E-01 -2.5931E-01 -2.5650E-01
 -2.5376E-01 -2.5299E-01 -2.5093E-01 -2.5005E-01 -2.0802E-01 -1.9411E-01
 -1.6072E-01 -1.4432E-01 -1.2617E-01 -1.1080E-01 -7.6596E-02 -7.3709E-02
 -5.9891E-02 -5.0069E-02 -4.3081E-02 -1.9708E-02 -1.1901E-02  2.7313E-02
  1.2052E-01  1.4628E-01  1.5244E-01  1.5969E-01  1.6836E-01  1.8162E-01
  1.9051E-01  1.9425E-01
  prteigrs : nnsclo,ikpt=  300    5 max resid (incl. the buffer)=  3.01622E-18
 Non-SCF case, kpt    6 (  0.25000  0.25000  0.25000), residuals and eigenvalues=
  1.86E-21  5.44E-21  8.92E-22  9.35E-21  9.59E-21  7.89E-21  4.02E-21  3.40E-21
  5.41E-21  2.19E-21  2.83E-21  2.99E-21  8.26E-21  6.82E-21  7.26E-21  3.04E-21
  4.74E-21  2.93E-21  9.09E-21  6.57E-21  4.55E-21  1.65E-21  6.20E-21  3.74E-21
  3.17E-21  2.96E-21  3.42E-21  5.98E-21  2.55E-21  7.31E-21  6.26E-21  7.42E-21
  9.23E-21  7.93E-21  3.73E-21  6.51E-21  7.85E-21  8.31E-21  3.34E-21  4.07E-21
  6.35E-21  5.87E-21  3.83E-21  5.83E-21  6.67E-21  8.57E-21  7.71E-21  4.32E-21
  5.22E-21  5.86E-21  6.89E-21  8.20E-21  5.43E-21  8.27E-21  2.11E-21  8.43E-21
  6.27E-21  3.46E-21  1.82E-21  1.86E-21  3.51E-21  6.76E-21  7.87E-21  5.92E-21
  6.18E-21  6.85E-21  7.27E-21  6.96E-21  9.83E-21  5.89E-21  7.54E-21  3.54E-21
  5.60E-16  1.47E-14
 -4.8073E+00 -4.8072E+00 -3.0430E+00 -3.0429E+00 -3.0424E+00 -3.0421E+00
 -3.0420E+00 -3.0415E+00 -1.7546E+00 -1.7542E+00 -1.7530E+00 -1.7524E+00
 -1.7513E+00 -1.7504E+00 -1.7489E+00 -1.7486E+00 -1.7485E+00 -1.7469E+00
 -1.7254E+00 -1.7251E+00 -1.7242E+00 -1.7211E+00 -1.7208E+00 -1.7207E+00
 -1.7199E+00 -1.7192E+00 -1.7186E+00 -1.7162E+00 -7.3347E-01 -7.3306E-01
 -7.3224E-01 -7.3218E-01 -7.3204E-01 -7.3053E-01 -7.2997E-01 -7.2934E-01
 -7.2916E-01 -7.2908E-01 -4.6585E-01 -4.5136E-01 -4.4155E-01 -4.1632E-01
 -2.7167E-01 -2.6247E-01 -2.6179E-01 -2.6160E-01 -2.5895E-01 -2.5774E-01
 -2.5369E-01 -2.5284E-01 -2.5070E-01 -2.4960E-01 -2.0956E-01 -1.8875E-01
 -1.5884E-01 -1.3437E-01 -1.1571E-01 -1.0939E-01 -7.5092E-02 -6.7006E-02
 -4.9419E-02 -4.2616E-02 -3.5357E-02 -3.1800E-03  1.2245E-02  5.0382E-02
  1.1006E-01  1.3718E-01  1.4148E-01  1.4573E-01  1.5232E-01  1.7873E-01
  1.9254E-01  2.0302E-01
  prteigrs : nnsclo,ikpt=  300    6 max resid (incl. the buffer)=  1.46779E-14
 Non-SCF case, kpt    7 (  0.20000  0.20000  0.30000), residuals and eigenvalues=
  7.21E-21  1.78E-21  8.21E-21  2.46E-21  1.06E-21  5.62E-21  9.91E-22  3.08E-21
  5.27E-21  3.99E-21  9.06E-21  1.78E-21  3.34E-21  5.66E-21  4.44E-21  8.18E-21
  4.32E-21  2.69E-21  4.39E-21  3.18E-21  7.47E-21  6.71E-21  6.38E-21  4.70E-21
  3.32E-21  4.96E-21  3.28E-21  5.29E-21  5.62E-21  4.91E-21  3.99E-21  3.18E-21
  4.59E-21  5.65E-21  3.72E-21  9.76E-21  4.62E-21  3.52E-21  4.00E-21  3.48E-21
  6.30E-21  4.02E-21  6.32E-21  6.85E-21  5.58E-21  3.75E-21  9.65E-21  6.58E-21
  7.98E-21  6.41E-21  8.99E-21  6.17E-21  8.21E-21  6.70E-21  3.70E-21  7.06E-21
  6.34E-21  3.98E-21  7.61E-21  9.66E-21  8.30E-21  2.30E-21  1.38E-21  6.45E-21
  9.78E-21  1.51E-21  1.87E-21  1.51E-21  4.52E-21  7.78E-21  1.72E-21  9.48E-21
  2.46E-21  3.99E-17
 -4.8073E+00 -4.8072E+00 -3.0429E+00 -3.0425E+00 -3.0423E+00 -3.0422E+00
 -3.0417E+00 -3.0406E+00 -1.7552E+00 -1.7546E+00 -1.7530E+00 -1.7507E+00
 -1.7505E+00 -1.7494E+00 -1.7478E+00 -1.7476E+00 -1.7465E+00 -1.7449E+00
 -1.7256E+00 -1.7250E+00 -1.7241E+00 -1.7212E+00 -1.7200E+00 -1.7198E+00
 -1.7184E+00 -1.7181E+00 -1.7166E+00 -1.7152E+00 -7.3361E-01 -7.3236E-01
 -7.3217E-01 -7.3214E-01 -7.3209E-01 -7.3052E-01 -7.2944E-01 -7.2933E-01
 -7.2912E-01 -7.2911E-01 -4.7050E-01 -4.5306E-01 -4.4798E-01 -4.1777E-01
 -2.7093E-01 -2.6375E-01 -2.6279E-01 -2.6176E-01 -2.6109E-01 -2.5533E-01
 -2.5269E-01 -2.5115E-01 -2.5107E-01 -2.4928E-01 -2.0612E-01 -1.7966E-01
 -1.5655E-01 -1.2205E-01 -1.0514E-01 -1.0415E-01 -7.9569E-02 -5.6650E-02
 -3.7954E-02 -3.5113E-02 -3.0940E-02 -6.1275E-04  3.8328E-02  4.4752E-02
  1.1371E-01  1.2394E-01  1.2948E-01  1.3934E-01  1.4348E-01  1.8631E-01
  1.9042E-01  2.0259E-01
  prteigrs : nnsclo,ikpt=  300    7 max resid (incl. the buffer)=  3.98674E-17
 Non-SCF case, kpt    8 (  0.15000  0.15000  0.35000), residuals and eigenvalues=
  3.19E-21  5.80E-21  7.88E-22  9.74E-21  1.07E-21  7.17E-21  3.43E-21  6.42E-21
  3.01E-21  4.66E-21  6.52E-21  2.29E-21  4.89E-21  4.84E-21  4.39E-21  4.04E-21
  3.38E-21  6.40E-21  4.10E-21  4.42E-21  9.44E-21  3.15E-21  7.27E-21  3.13E-21
  3.84E-21  5.32E-21  4.21E-21  3.46E-21  5.96E-21  4.48E-21  5.61E-21  5.00E-21
  5.61E-21  6.55E-21  5.11E-21  4.38E-21  4.97E-21  3.40E-21  9.00E-21  9.94E-21
  3.13E-21  2.39E-21  6.63E-21  6.15E-21  8.31E-21  6.88E-21  9.05E-21  4.52E-21
  5.90E-21  3.64E-21  4.14E-21  7.09E-21  8.93E-21  5.02E-21  6.40E-21  9.34E-21
  4.57E-21  9.86E-21  7.13E-21  5.09E-21  3.36E-21  2.61E-21  5.30E-21  3.08E-21
  7.32E-21  1.88E-21  6.74E-21  3.42E-21  6.71E-21  6.47E-21  6.25E-21  7.41E-21
  1.24E-17  3.50E-07
 -4.8073E+00 -4.8072E+00 -3.0439E+00 -3.0426E+00 -3.0424E+00 -3.0424E+00
 -3.0423E+00 -3.0421E+00 -1.7569E+00 -1.7565E+00 -1.7551E+00 -1.7550E+00
 -1.7525E+00 -1.7511E+00 -1.7496E+00 -1.7479E+00 -1.7477E+00 -1.7469E+00
 -1.7270E+00 -1.7266E+00 -1.7249E+00 -1.7239E+00 -1.7231E+00 -1.7224E+00
 -1.7219E+00 -1.7181E+00 -1.7174E+00 -1.7167E+00 -7.3391E-01 -7.3288E-01
 -7.3265E-01 -7.3229E-01 -7.3227E-01 -7.3069E-01 -7.3007E-01 -7.2978E-01
 -7.2917E-01 -7.2917E-01 -4.7461E-01 -4.5701E-01 -4.5097E-01 -4.1925E-01
 -2.7071E-01 -2.6555E-01 -2.6522E-01 -2.6505E-01 -2.6419E-01 -2.5516E-01
 -2.5310E-01 -2.5281E-01 -2.5164E-01 -2.4790E-01 -1.9826E-01 -1.6849E-01
 -1.5369E-01 -1.0815E-01 -9.9502E-02 -9.2532E-02 -8.2728E-02 -4.6530E-02
 -3.1530E-02 -2.7001E-02 -2.6813E-02 -1.1100E-02  3.1047E-02  3.4985E-02
  1.0529E-01  1.1010E-01  1.3079E-01  1.4028E-01  1.6112E-01  1.8004E-01
  1.9398E-01  2.1309E-01
  prteigrs : nnsclo,ikpt=  300    8 max resid (incl. the buffer)=  3.50196E-07
 Non-SCF case, kpt    9 (  0.10000  0.10000  0.40000), residuals and eigenvalues=
  1.98E-21  5.89E-21  6.95E-21  5.57E-21  9.11E-21  4.49E-21  7.90E-22  9.58E-22
  4.53E-21  1.80E-21  9.09E-21  6.32E-21  2.70E-21  4.35E-21  7.78E-21  6.50E-21
  4.28E-21  3.47E-21  7.86E-21  7.64E-21  3.13E-21  3.44E-21  6.87E-21  9.84E-21
  5.66E-21  5.68E-21  6.87E-21  6.84E-21  9.99E-21  3.41E-21  6.03E-21  6.01E-21
  4.02E-21  4.17E-21  4.18E-21  6.62E-21  5.03E-21  4.98E-21  5.87E-21  6.60E-21
  3.14E-21  9.29E-21  5.44E-21  8.06E-21  9.28E-21  8.38E-21  5.86E-21  8.44E-21
  6.74E-21  6.29E-21  6.15E-21  6.23E-21  8.31E-21  7.96E-21  4.42E-21  3.08E-21
  3.63E-21  7.81E-21  3.84E-21  2.71E-21  6.67E-21  3.06E-21  4.83E-21  3.40E-21
  6.29E-21  8.14E-21  6.29E-21  5.32E-21  8.83E-21  5.97E-21  3.76E-21  2.46E-21
  3.81E-13  7.68E-07
 -4.8073E+00 -4.8073E+00 -3.0442E+00 -3.0442E+00 -3.0423E+00 -3.0423E+00
 -3.0419E+00 -3.0416E+00 -1.7573E+00 -1.7556E+00 -1.7553E+00 -1.7542E+00
 -1.7539E+00 -1.7514E+00 -1.7511E+00 -1.7485E+00 -1.7479E+00 -1.7468E+00
 -1.7268E+00 -1.7256E+00 -1.7256E+00 -1.7237E+00 -1.7234E+00 -1.7228E+00
 -1.7220E+00 -1.7205E+00 -1.7184E+00 -1.7161E+00 -7.3400E-01 -7.3306E-01
 -7.3276E-01 -7.3234E-01 -7.3208E-01 -7.3072E-01 -7.3025E-01 -7.2997E-01
 -7.2930E-01 -7.2900E-01 -4.7781E-01 -4.6119E-01 -4.5201E-01 -4.2052E-01
 -2.6968E-01 -2.6742E-01 -2.6737E-01 -2.6600E-01 -2.6554E-01 -2.5456E-01
 -2.5402E-01 -2.5332E-01 -2.4939E-01 -2.4707E-01 -1.8738E-01 -1.5948E-01
 -1.4802E-01 -9.4276E-02 -9.3961E-02 -8.2162E-02 -8.1730E-02 -4.5102E-02
 -3.7814E-02 -2.1917E-02 -1.7942E-02 -1.7092E-02  6.1080E-03  3.2481E-02
  8.8180E-02  9.4734E-02  1.2468E-01  1.4074E-01  1.7749E-01  1.9481E-01
  2.0420E-01  2.2141E-01
  prteigrs : nnsclo,ikpt=  300    9 max resid (incl. the buffer)=  7.68165E-07
 Non-SCF case, kpt   10 (  0.05000  0.05000  0.45000), residuals and eigenvalues=
  8.82E-21  3.16E-21  1.24E-21  1.14E-21  3.56E-21  2.55E-21  3.35E-21  1.78E-21
  5.39E-21  2.55E-21  6.03E-21  5.20E-21  5.86E-21  3.04E-21  2.51E-21  9.39E-21
  3.94E-21  2.82E-21  7.90E-21  4.98E-21  9.17E-21  8.82E-21  3.69E-21  3.03E-21
  5.72E-21  9.84E-21  6.03E-21  7.31E-21  8.61E-21  3.50E-21  5.61E-21  6.88E-21
  3.25E-21  3.52E-21  7.72E-21  5.80E-21  4.14E-21  7.99E-21  4.19E-21  7.81E-21
  9.65E-21  4.24E-21  9.51E-21  9.52E-21  8.68E-21  8.33E-21  6.09E-21  9.36E-21
  5.16E-21  3.21E-21  7.31E-21  7.65E-21  4.17E-21  6.15E-21  5.61E-21  7.55E-21
  6.92E-21  8.99E-21  9.31E-21  5.50E-21  4.88E-21  4.32E-21  8.03E-21  9.10E-21
  3.38E-21  5.69E-21  7.52E-21  4.72E-21  2.81E-21  1.65E-21  7.79E-21  6.58E-21
  1.42E-09  1.22E-09
 -4.8073E+00 -4.8072E+00 -3.0440E+00 -3.0439E+00 -3.0420E+00 -3.0418E+00
 -3.0417E+00 -3.0415E+00 -1.7562E+00 -1.7552E+00 -1.7541E+00 -1.7535E+00
 -1.7532E+00 -1.7510E+00 -1.7504E+00 -1.7490E+00 -1.7461E+00 -1.7451E+00
 -1.7260E+00 -1.7248E+00 -1.7246E+00 -1.7243E+00 -1.7231E+00 -1.7226E+00
 -1.7208E+00 -1.7200E+00 -1.7167E+00 -1.7142E+00 -7.3396E-01 -7.3303E-01
 -7.3277E-01 -7.3204E-01 -7.3185E-01 -7.3066E-01 -7.3017E-01 -7.2998E-01
 -7.2903E-01 -7.2876E-01 -4.7984E-01 -4.6393E-01 -4.5248E-01 -4.2137E-01
 -2.6958E-01 -2.6757E-01 -2.6680E-01 -2.6629E-01 -2.6600E-01 -2.5499E-01
 -2.5369E-01 -2.5319E-01 -2.4801E-01 -2.4528E-01 -1.7668E-01 -1.5593E-01
 -1.3981E-01 -8.8988E-02 -8.2373E-02 -7.8358E-02 -7.4651E-02 -6.4121E-02
 -3.1828E-02 -2.4859E-02 -1.8041E-02 -1.0365E-02 -1.0015E-02  3.2317E-02
  7.0582E-02  8.5576E-02  1.1844E-01  1.3137E-01  1.9256E-01  1.9344E-01
  2.1372E-01  2.1503E-01
  prteigrs : nnsclo,ikpt=  300   10 max resid (incl. the buffer)=  1.41519E-09
 Non-SCF case, kpt   11 (  0.00000  0.00000  0.50000), residuals and eigenvalues=
  5.33E-21  1.80E-21  2.73E-21  2.86E-21  4.20E-21  9.33E-21  4.69E-21  5.21E-21
  1.95E-21  7.31E-21  6.06E-21  4.51E-21  2.38E-21  1.88E-21  6.95E-21  2.71E-21
  2.56E-21  4.37E-21  4.33E-21  2.43E-21  6.19E-21  3.60E-21  7.62E-21  3.92E-21
  9.70E-21  3.53E-21  4.25E-21  6.70E-21  3.43E-21  2.08E-21  7.70E-21  6.76E-21
  4.49E-21  6.83E-21  8.67E-21  3.84E-21  4.95E-21  2.45E-21  8.66E-21  3.59E-21
  5.89E-21  3.35E-21  5.84E-21  5.56E-21  5.64E-21  4.81E-21  4.38E-21  4.08E-21
  3.94E-21  9.79E-21  6.14E-21  5.03E-21  5.69E-21  4.23E-21  8.49E-21  3.79E-21
  5.42E-21  4.71E-21  7.16E-21  3.35E-21  6.26E-21  9.33E-21  6.42E-21  2.01E-21
  3.88E-21  4.59E-21  5.81E-21  5.46E-21  5.64E-21  8.58E-21  9.84E-21  5.99E-21
  7.28E-13  2.80E-06
 -4.8073E+00 -4.8073E+00 -3.0452E+00 -3.0452E+00 -3.0424E+00 -3.0424E+00
 -3.0423E+00 -3.0412E+00 -1.7613E+00 -1.7578E+00 -1.7561E+00 -1.7547E+00
 -1.7537E+00 -1.7537E+00 -1.7515E+00 -1.7496E+00 -1.7475E+00 -1.7475E+00
 -1.7312E+00 -1.7281E+00 -1.7253E+00 -1.7253E+00 -1.7247E+00 -1.7245E+00
 -1.7233E+00 -1.7217E+00 -1.7160E+00 -1.7160E+00 -7.3411E-01 -7.3402E-01
 -7.3306E-01 -7.3206E-01 -7.3206E-01 -7.3092E-01 -7.3089E-01 -7.3023E-01
 -7.2900E-01 -7.2900E-01 -4.8053E-01 -4.6487E-01 -4.5268E-01 -4.2167E-01
 -2.7020E-01 -2.7015E-01 -2.6794E-01 -2.6794E-01 -2.6734E-01 -2.5404E-01
 -2.5368E-01 -2.5368E-01 -2.5045E-01 -2.4620E-01 -1.7190E-01 -1.5493E-01
 -1.3621E-01 -8.4929E-02 -7.7902E-02 -7.7902E-02 -7.1766E-02 -7.1766E-02
 -2.9694E-02 -2.9694E-02 -2.4844E-02 -7.7471E-03 -7.7471E-03  3.2061E-02
  6.3445E-02  8.1877E-02  1.1495E-01  1.2964E-01  1.8805E-01  1.9347E-01
  2.0987E-01  2.2687E-01
  prteigrs : nnsclo,ikpt=  300   11 max resid (incl. the buffer)=  2.80379E-06
 Non-SCF case, kpt   12 (  0.00000  0.00000  0.45833), residuals and eigenvalues=
  4.21E-21  4.87E-21  2.16E-21  4.78E-21  7.92E-22  2.16E-21  2.14E-21  3.51E-21
  4.11E-21  8.58E-21  9.16E-21  7.83E-21  6.64E-21  9.95E-21  4.81E-21  8.40E-21
  6.24E-21  9.04E-21  8.42E-21  3.28E-21  8.11E-21  4.73E-21  4.75E-21  8.11E-21
  8.89E-21  3.05E-21  8.93E-21  4.54E-21  6.99E-21  4.84E-21  2.81E-21  5.69E-21
  4.21E-21  2.45E-21  5.72E-21  6.75E-21  4.92E-21  3.23E-21  3.74E-21  4.66E-21
  8.33E-21  6.74E-21  8.86E-21  3.35E-21  6.46E-21  9.12E-21  7.18E-21  3.46E-21
  7.10E-21  7.09E-21  6.14E-21  8.74E-21  2.92E-21  9.26E-21  2.22E-21  9.78E-21
  6.70E-21  9.35E-21  9.89E-21  8.25E-21  4.31E-21  2.27E-21  3.63E-21  4.40E-21
  6.04E-21  1.40E-21  8.10E-21  3.11E-21  4.51E-21  3.72E-21  3.80E-21  6.26E-21
  3.44E-12  1.13E-06
 -4.8073E+00 -4.8073E+00 -3.0452E+00 -3.0452E+00 -3.0423E+00 -3.0423E+00
 -3.0422E+00 -3.0410E+00 -1.7610E+00 -1.7573E+00 -1.7564E+00 -1.7544E+00
 -1.7538E+00 -1.7538E+00 -1.7519E+00 -1.7500E+00 -1.7468E+00 -1.7468E+00
 -1.7310E+00 -1.7281E+00 -1.7250E+00 -1.7249E+00 -1.7249E+00 -1.7242E+00
 -1.7232E+00 -1.7223E+00 -1.7153E+00 -1.7153E+00 -7.3416E-01 -7.3399E-01
 -7.3310E-01 -7.3201E-01 -7.3201E-01 -7.3087E-01 -7.3084E-01 -7.3030E-01
 -7.2891E-01 -7.2891E-01 -4.8053E-01 -4.6487E-01 -4.5268E-01 -4.2167E-01
 -2.7015E-01 -2.7014E-01 -2.6785E-01 -2.6785E-01 -2.6730E-01 -2.5410E-01
 -2.5334E-01 -2.5334E-01 -2.5025E-01 -2.4657E-01 -1.7191E-01 -1.5493E-01
 -1.3621E-01 -8.4930E-02 -7.7880E-02 -7.7880E-02 -7.1761E-02 -7.1761E-02
 -2.9693E-02 -2.9693E-02 -2.4842E-02 -7.7301E-03 -7.7301E-03  3.2064E-02
  6.3457E-02  8.1886E-02  1.1497E-01  1.2964E-01  1.8806E-01  1.9355E-01
  2.0993E-01  2.2679E-01
  prteigrs : nnsclo,ikpt=  300   12 max resid (incl. the buffer)=  1.13432E-06
 Non-SCF case, kpt   13 (  0.00000  0.00000  0.41667), residuals and eigenvalues=
  6.42E-21  2.99E-21  2.61E-21  6.98E-21  3.05E-21  6.47E-22  1.98E-21  9.41E-22
  5.65E-21  8.88E-21  3.57E-21  5.65E-21  3.90E-21  7.16E-21  2.72E-21  5.67E-21
  8.54E-21  5.77E-21  4.80E-21  4.15E-21  7.42E-21  6.91E-21  2.49E-21  5.58E-21
  4.33E-21  6.88E-21  2.86E-21  6.06E-21  7.45E-21  7.21E-21  4.65E-21  3.35E-21
  5.84E-21  8.08E-21  2.04E-21  3.62E-21  7.11E-21  3.70E-21  5.92E-21  7.06E-21
  4.50E-21  8.37E-21  6.72E-21  4.44E-21  8.78E-21  4.90E-21  5.79E-21  5.22E-21
  3.76E-21  3.58E-21  5.92E-21  9.41E-21  3.92E-21  9.10E-21  7.03E-21  7.15E-21
  4.78E-21  9.56E-21  6.31E-21  4.41E-21  3.53E-21  3.85E-21  7.90E-21  4.59E-21
  5.17E-21  5.07E-21  7.12E-21  5.74E-21  5.98E-21  8.57E-21  6.36E-21  2.06E-21
  7.96E-13  2.31E-06
 -4.8073E+00 -4.8073E+00 -3.0445E+00 -3.0445E+00 -3.0423E+00 -3.0423E+00
 -3.0421E+00 -3.0414E+00 -1.7606E+00 -1.7571E+00 -1.7550E+00 -1.7534E+00
 -1.7534E+00 -1.7520E+00 -1.7516E+00 -1.7507E+00 -1.7468E+00 -1.7468E+00
 -1.7299E+00 -1.7272E+00 -1.7253E+00 -1.7248E+00 -1.7248E+00 -1.7231E+00
 -1.7221E+00 -1.7208E+00 -1.7149E+00 -1.7149E+00 -7.3426E-01 -7.3379E-01
 -7.3294E-01 -7.3198E-01 -7.3198E-01 -7.3081E-01 -7.3056E-01 -7.3011E-01
 -7.2887E-01 -7.2887E-01 -4.8053E-01 -4.6487E-01 -4.5265E-01 -4.2167E-01
 -2.7015E-01 -2.6877E-01 -2.6796E-01 -2.6759E-01 -2.6759E-01 -2.5338E-01
 -2.5338E-01 -2.5337E-01 -2.5024E-01 -2.4537E-01 -1.7190E-01 -1.5502E-01
 -1.3623E-01 -8.4918E-02 -7.7849E-02 -7.7849E-02 -7.1756E-02 -7.1756E-02
 -2.9692E-02 -2.9692E-02 -2.4689E-02 -7.6968E-03 -7.6968E-03  3.2082E-02
  6.3495E-02  8.1886E-02  1.1497E-01  1.2965E-01  1.8815E-01  1.9380E-01
  2.1010E-01  2.2695E-01
  prteigrs : nnsclo,ikpt=  300   13 max resid (incl. the buffer)=  2.31089E-06
 Non-SCF case, kpt   14 (  0.00000  0.00000  0.37500), residuals and eigenvalues=
  2.12E-21  6.91E-21  7.30E-21  7.89E-21  3.80E-21  3.71E-21  9.00E-22  8.22E-22
  6.36E-21  3.18E-21  2.91E-21  1.80E-21  5.68E-21  3.76E-21  6.83E-21  2.96E-21
  3.98E-21  6.70E-21  9.11E-21  2.89E-21  8.54E-21  8.25E-21  7.56E-21  6.16E-21
  4.14E-21  2.22E-21  5.98E-21  2.94E-21  8.40E-21  2.58E-21  4.00E-21  2.12E-21
  2.35E-21  7.78E-21  8.70E-21  3.08E-21  8.11E-21  8.36E-21  9.32E-21  4.52E-21
  9.48E-21  6.54E-21  3.34E-21  6.67E-21  3.70E-21  3.87E-21  9.12E-21  9.86E-21
  3.82E-21  4.61E-21  3.35E-21  9.90E-21  5.87E-21  3.67E-21  9.81E-21  6.38E-21
  2.92E-21  2.54E-21  4.28E-21  2.55E-21  8.79E-21  3.45E-21  4.96E-21  9.38E-21
  5.43E-21  4.67E-21  7.91E-21  7.93E-21  2.21E-21  8.99E-21  5.92E-21  7.61E-21
  8.34E-13  9.09E-08
 -4.8073E+00 -4.8073E+00 -3.0445E+00 -3.0445E+00 -3.0420E+00 -3.0420E+00
 -3.0416E+00 -3.0415E+00 -1.7598E+00 -1.7562E+00 -1.7547E+00 -1.7536E+00
 -1.7536E+00 -1.7518E+00 -1.7509E+00 -1.7488E+00 -1.7461E+00 -1.7461E+00
 -1.7297E+00 -1.7269E+00 -1.7256E+00 -1.7246E+00 -1.7246E+00 -1.7215E+00
 -1.7207E+00 -1.7201E+00 -1.7144E+00 -1.7144E+00 -7.3416E-01 -7.3373E-01
 -7.3286E-01 -7.3193E-01 -7.3193E-01 -7.3051E-01 -7.3048E-01 -7.3003E-01
 -7.2882E-01 -7.2882E-01 -4.8053E-01 -4.6487E-01 -4.5265E-01 -4.2167E-01
 -2.6964E-01 -2.6881E-01 -2.6815E-01 -2.6742E-01 -2.6742E-01 -2.5325E-01
 -2.5325E-01 -2.5171E-01 -2.4974E-01 -2.4538E-01 -1.7190E-01 -1.5504E-01
 -1.3624E-01 -8.4918E-02 -7.7843E-02 -7.7843E-02 -7.1757E-02 -7.1757E-02
 -2.9691E-02 -2.9691E-02 -2.4694E-02 -7.6705E-03 -7.6705E-03  3.2087E-02
  6.3571E-02  8.1924E-02  1.1497E-01  1.2959E-01  1.8815E-01  1.9419E-01
  2.1019E-01  2.2691E-01
  prteigrs : nnsclo,ikpt=  300   14 max resid (incl. the buffer)=  9.08573E-08
 Non-SCF case, kpt   15 (  0.00000  0.00000  0.33333), residuals and eigenvalues=
  5.94E-21  2.93E-21  7.29E-22  3.49E-21  8.24E-22  1.63E-21  1.98E-21  1.97E-21
  1.51E-21  3.02E-21  3.76E-21  2.98E-21  6.01E-21  9.40E-21  6.02E-21  3.61E-21
  2.74E-21  4.59E-21  5.48E-21  9.54E-21  6.77E-21  8.23E-21  2.98E-21  8.07E-21
  4.61E-21  4.41E-21  5.77E-21  1.64E-21  3.17E-21  5.03E-21  9.39E-21  2.57E-21
  2.90E-21  4.41E-21  4.97E-21  2.92E-21  3.41E-21  9.03E-21  2.99E-21  5.47E-21
  9.09E-21  7.65E-21  7.76E-21  8.53E-21  6.36E-21  8.71E-21  7.62E-21  4.77E-21
  2.47E-21  7.11E-21  7.71E-21  3.18E-21  2.30E-21  9.15E-21  2.35E-21  5.28E-21
  5.40E-21  8.45E-21  6.72E-21  3.37E-21  4.29E-21  7.07E-21  4.54E-21  4.87E-21
  8.40E-21  6.57E-21  2.79E-21  3.97E-21  1.62E-21  6.62E-21  5.92E-21  5.81E-21
  1.32E-11  3.24E-06
 -4.8073E+00 -4.8073E+00 -3.0448E+00 -3.0448E+00 -3.0419E+00 -3.0419E+00
 -3.0415E+00 -3.0415E+00 -1.7586E+00 -1.7563E+00 -1.7553E+00 -1.7536E+00
 -1.7536E+00 -1.7525E+00 -1.7517E+00 -1.7489E+00 -1.7465E+00 -1.7465E+00
 -1.7286E+00 -1.7281E+00 -1.7254E+00 -1.7246E+00 -1.7246E+00 -1.7215E+00
 -1.7210E+00 -1.7209E+00 -1.7147E+00 -1.7147E+00 -7.3417E-01 -7.3358E-01
 -7.3308E-01 -7.3196E-01 -7.3196E-01 -7.3053E-01 -7.3044E-01 -7.3019E-01
 -7.2885E-01 -7.2885E-01 -4.8053E-01 -4.6487E-01 -4.5265E-01 -4.2167E-01
 -2.6964E-01 -2.6882E-01 -2.6803E-01 -2.6769E-01 -2.6769E-01 -2.5314E-01
 -2.5314E-01 -2.5198E-01 -2.4907E-01 -2.4668E-01 -1.7190E-01 -1.5503E-01
 -1.3624E-01 -8.4918E-02 -7.7857E-02 -7.7857E-02 -7.1759E-02 -7.1759E-02
 -2.9693E-02 -2.9693E-02 -2.4702E-02 -7.7070E-03 -7.7070E-03  3.2091E-02
  6.3594E-02  8.1959E-02  1.1493E-01  1.2951E-01  1.8815E-01  1.9471E-01
  2.1018E-01  2.2699E-01
  prteigrs : nnsclo,ikpt=  300   15 max resid (incl. the buffer)=  3.23617E-06
 Non-SCF case, kpt   16 (  0.00000  0.00000  0.29167), residuals and eigenvalues=
  3.46E-21  3.45E-21  6.71E-21  9.05E-22  2.03E-21  2.98E-21  8.16E-21  2.55E-21
  4.85E-21  3.70E-21  3.22E-21  8.33E-21  6.30E-21  4.39E-21  2.80E-21  6.41E-21
  3.02E-21  5.37E-21  4.61E-21  1.45E-21  4.30E-21  3.68E-21  3.80E-21  2.45E-21
  7.77E-21  3.91E-21  1.61E-21  9.85E-21  2.65E-21  4.00E-21  2.68E-21  5.01E-21
  3.52E-21  5.20E-21  5.72E-21  3.56E-21  3.37E-21  3.94E-21  4.28E-21  7.32E-21
  5.31E-21  3.32E-21  4.99E-21  9.13E-21  3.08E-21  5.70E-21  9.56E-21  8.39E-21
  6.15E-21  7.60E-21  6.41E-21  3.79E-21  8.06E-21  8.28E-21  6.74E-21  5.45E-21
  3.89E-21  4.99E-21  7.41E-21  6.36E-21  4.13E-21  2.37E-21  5.22E-21  5.97E-21
  7.73E-21  6.88E-21  8.45E-21  7.86E-21  1.96E-21  7.14E-21  7.46E-21  7.90E-21
  4.77E-12  4.25E-07
 -4.8073E+00 -4.8073E+00 -3.0446E+00 -3.0446E+00 -3.0420E+00 -3.0419E+00
 -3.0419E+00 -3.0418E+00 -1.7564E+00 -1.7559E+00 -1.7559E+00 -1.7558E+00
 -1.7555E+00 -1.7521E+00 -1.7521E+00 -1.7505E+00 -1.7460E+00 -1.7460E+00
 -1.7278E+00 -1.7266E+00 -1.7257E+00 -1.7255E+00 -1.7255E+00 -1.7217E+00
 -1.7213E+00 -1.7212E+00 -1.7150E+00 -1.7150E+00 -7.3430E-01 -7.3334E-01
 -7.3305E-01 -7.3208E-01 -7.3208E-01 -7.3056E-01 -7.3036E-01 -7.3020E-01
 -7.2896E-01 -7.2896E-01 -4.8053E-01 -4.6487E-01 -4.5264E-01 -4.2167E-01
 -2.6979E-01 -2.6828E-01 -2.6767E-01 -2.6767E-01 -2.6762E-01 -2.5390E-01
 -2.5390E-01 -2.5302E-01 -2.4855E-01 -2.4647E-01 -1.7191E-01 -1.5498E-01
 -1.3622E-01 -8.4913E-02 -7.7881E-02 -7.7881E-02 -7.1771E-02 -7.1771E-02
 -2.9691E-02 -2.9691E-02 -2.4658E-02 -7.7080E-03 -7.7080E-03  3.2105E-02
  6.3607E-02  8.2008E-02  1.1488E-01  1.2942E-01  1.8817E-01  1.9534E-01
  2.1008E-01  2.2690E-01
  prteigrs : nnsclo,ikpt=  300   16 max resid (incl. the buffer)=  4.24663E-07
 Non-SCF case, kpt   17 (  0.00000  0.00000  0.25000), residuals and eigenvalues=
  3.78E-21  1.95E-21  2.37E-21  1.03E-21  9.75E-21  5.42E-21  1.73E-21  2.54E-21
  3.50E-21  6.75E-21  7.72E-21  6.39E-21  7.44E-21  5.89E-21  5.83E-21  7.43E-21
  4.56E-21  6.63E-21  1.47E-21  6.71E-21  4.01E-21  7.57E-21  3.29E-21  4.80E-21
  4.22E-21  6.91E-21  2.09E-21  8.23E-21  8.78E-21  2.36E-21  3.10E-21  4.02E-21
  9.14E-21  2.66E-21  2.90E-21  4.15E-21  3.74E-21  6.80E-21  5.68E-21  7.82E-21
  6.19E-21  2.84E-21  9.74E-21  8.53E-21  6.96E-21  6.03E-21  6.72E-21  5.32E-21
  9.63E-21  8.89E-21  5.77E-21  4.42E-21  5.23E-21  6.39E-21  9.45E-21  4.42E-21
  4.12E-21  7.58E-21  4.79E-21  3.21E-21  3.18E-21  4.97E-21  3.17E-21  6.79E-21
  7.92E-21  9.74E-21  8.71E-21  5.87E-21  9.60E-21  3.15E-21  4.17E-21  7.30E-21
  4.39E-13  8.00E-07
 -4.8073E+00 -4.8073E+00 -3.0444E+00 -3.0444E+00 -3.0422E+00 -3.0421E+00
 -3.0421E+00 -3.0414E+00 -1.7565E+00 -1.7555E+00 -1.7555E+00 -1.7553E+00
 -1.7551E+00 -1.7522E+00 -1.7517E+00 -1.7496E+00 -1.7461E+00 -1.7461E+00
 -1.7274E+00 -1.7264E+00 -1.7258E+00 -1.7254E+00 -1.7254E+00 -1.7215E+00
 -1.7212E+00 -1.7200E+00 -1.7155E+00 -1.7155E+00 -7.3425E-01 -7.3332E-01
 -7.3301E-01 -7.3207E-01 -7.3207E-01 -7.3035E-01 -7.3034E-01 -7.3018E-01
 -7.2900E-01 -7.2900E-01 -4.8053E-01 -4.6487E-01 -4.5264E-01 -4.2167E-01
 -2.7004E-01 -2.6817E-01 -2.6762E-01 -2.6703E-01 -2.6703E-01 -2.5468E-01
 -2.5468E-01 -2.5205E-01 -2.4865E-01 -2.4603E-01 -1.7191E-01 -1.5499E-01
 -1.3623E-01 -8.4909E-02 -7.7868E-02 -7.7868E-02 -7.1768E-02 -7.1768E-02
 -2.9689E-02 -2.9689E-02 -2.4650E-02 -7.6336E-03 -7.6336E-03  3.2113E-02
  6.3637E-02  8.2052E-02  1.1483E-01  1.2933E-01  1.8822E-01  1.9604E-01
  2.1019E-01  2.2703E-01
  prteigrs : nnsclo,ikpt=  300   17 max resid (incl. the buffer)=  8.00006E-07
 Non-SCF case, kpt   18 (  0.00000  0.00000  0.20833), residuals and eigenvalues=
  3.84E-21  2.27E-21  9.65E-21  5.75E-21  3.31E-21  2.13E-21  3.23E-21  2.08E-21
  7.74E-21  5.62E-21  6.17E-21  3.29E-21  3.32E-21  2.73E-21  8.52E-21  4.90E-21
  3.83E-21  9.80E-21  5.16E-21  7.22E-21  4.99E-21  9.25E-21  4.93E-21  3.66E-21
  3.68E-21  6.18E-21  7.47E-21  5.02E-21  4.80E-21  6.17E-21  9.78E-21  8.44E-21
  6.74E-21  9.39E-21  7.05E-21  2.83E-21  6.38E-21  6.77E-21  9.38E-21  2.72E-21
  5.69E-21  5.89E-21  7.80E-21  7.52E-21  4.08E-21  5.79E-21  9.38E-21  5.79E-21
  6.82E-21  5.83E-21  6.18E-21  7.01E-21  5.51E-21  3.07E-21  4.07E-21  2.76E-21
  8.80E-21  5.80E-21  8.00E-21  2.85E-21  7.02E-21  4.69E-21  3.88E-21  9.63E-21
  8.40E-21  2.99E-21  8.99E-21  4.55E-21  3.50E-21  8.92E-21  2.99E-21  5.90E-21
  5.96E-12  3.01E-07
 -4.8073E+00 -4.8073E+00 -3.0444E+00 -3.0444E+00 -3.0423E+00 -3.0423E+00
 -3.0417E+00 -3.0414E+00 -1.7566E+00 -1.7561E+00 -1.7560E+00 -1.7560E+00
 -1.7543E+00 -1.7524E+00 -1.7520E+00 -1.7490E+00 -1.7459E+00 -1.7459E+00
 -1.7285E+00 -1.7266E+00 -1.7260E+00 -1.7260E+00 -1.7251E+00 -1.7217E+00
 -1.7212E+00 -1.7187E+00 -1.7150E+00 -1.7150E+00 -7.3412E-01 -7.3334E-01
 -7.3311E-01 -7.3209E-01 -7.3209E-01 -7.3036E-01 -7.3028E-01 -7.3020E-01
 -7.2900E-01 -7.2900E-01 -4.8053E-01 -4.6487E-01 -4.5264E-01 -4.2167E-01
 -2.7062E-01 -2.6800E-01 -2.6704E-01 -2.6704E-01 -2.6683E-01 -2.5485E-01
 -2.5485E-01 -2.5208E-01 -2.4880E-01 -2.4605E-01 -1.7190E-01 -1.5488E-01
 -1.3620E-01 -8.4902E-02 -7.7851E-02 -7.7851E-02 -7.1765E-02 -7.1765E-02
 -2.9689E-02 -2.9689E-02 -2.4648E-02 -7.6338E-03 -7.6338E-03  3.2126E-02
  6.3636E-02  8.2106E-02  1.1480E-01  1.2923E-01  1.8822E-01  1.9677E-01
  2.1017E-01  2.2679E-01
  prteigrs : nnsclo,ikpt=  300   18 max resid (incl. the buffer)=  3.01086E-07
 Non-SCF case, kpt   19 (  0.00000  0.00000  0.16667), residuals and eigenvalues=
  1.93E-21  3.28E-21  2.40E-21  8.55E-22  9.43E-22  9.58E-21  1.33E-21  2.36E-21
  7.95E-21  3.17E-21  5.14E-21  5.70E-21  8.81E-21  7.10E-21  4.62E-21  7.23E-21
  4.43E-21  6.05E-21  4.13E-21  9.16E-21  4.59E-21  5.84E-21  6.97E-21  7.86E-21
  4.26E-21  6.00E-21  5.72E-21  4.47E-21  7.67E-21  7.79E-21  3.97E-21  9.29E-21
  3.88E-21  8.96E-21  2.93E-21  3.41E-21  8.43E-21  4.27E-21  3.73E-21  9.45E-21
  2.51E-21  2.86E-21  7.81E-21  5.12E-21  7.22E-21  7.95E-21  3.89E-21  3.06E-21
  7.42E-21  3.37E-21  4.03E-21  5.73E-21  3.01E-21  3.22E-21  3.81E-21  2.17E-21
  8.22E-21  9.57E-21  1.87E-21  7.22E-21  5.54E-21  6.78E-21  8.40E-21  3.48E-21
  3.92E-21  3.69E-21  8.82E-21  6.21E-21  2.08E-21  5.00E-21  5.55E-21  8.28E-21
  2.26E-11  1.53E-06
 -4.8073E+00 -4.8072E+00 -3.0442E+00 -3.0442E+00 -3.0423E+00 -3.0423E+00
 -3.0423E+00 -3.0413E+00 -1.7561E+00 -1.7560E+00 -1.7556E+00 -1.7556E+00
 -1.7555E+00 -1.7525E+00 -1.7517E+00 -1.7506E+00 -1.7465E+00 -1.7465E+00
 -1.7286E+00 -1.7260E+00 -1.7255E+00 -1.7255E+00 -1.7254E+00 -1.7217E+00
 -1.7213E+00 -1.7202E+00 -1.7156E+00 -1.7156E+00 -7.3421E-01 -7.3327E-01
 -7.3311E-01 -7.3208E-01 -7.3208E-01 -7.3046E-01 -7.3033E-01 -7.3028E-01
 -7.2903E-01 -7.2903E-01 -4.8053E-01 -4.6487E-01 -4.5263E-01 -4.2167E-01
 -2.7063E-01 -2.6810E-01 -2.6745E-01 -2.6679E-01 -2.6679E-01 -2.5522E-01
 -2.5522E-01 -2.5210E-01 -2.4882E-01 -2.4606E-01 -1.7192E-01 -1.5499E-01
 -1.3622E-01 -8.4899E-02 -7.7858E-02 -7.7858E-02 -7.1766E-02 -7.1766E-02
 -2.9688E-02 -2.9688E-02 -2.4620E-02 -7.5885E-03 -7.5885E-03  3.2129E-02
  6.3640E-02  8.2144E-02  1.1466E-01  1.2911E-01  1.8829E-01  1.9748E-01
  2.1017E-01  2.2679E-01
  prteigrs : nnsclo,ikpt=  300   19 max resid (incl. the buffer)=  1.53108E-06
 Non-SCF case, kpt   20 (  0.00000  0.00000  0.12500), residuals and eigenvalues=
  2.32E-21  4.18E-21  6.62E-21  1.55E-21  9.49E-22  5.46E-21  8.27E-21  4.59E-21
  3.07E-21  9.22E-21  4.88E-21  6.73E-21  3.06E-21  8.57E-21  8.38E-21  6.13E-21
  3.91E-21  2.17E-21  5.09E-21  4.97E-21  2.20E-21  8.48E-21  4.47E-21  4.80E-21
  3.97E-21  2.08E-21  4.97E-21  6.95E-21  3.51E-21  7.74E-21  4.82E-21  3.28E-21
  2.98E-21  4.91E-21  4.76E-21  2.28E-21  3.72E-21  7.86E-21  6.60E-21  4.75E-21
  6.73E-21  4.72E-21  9.94E-21  9.50E-21  8.58E-21  8.82E-21  9.67E-21  8.08E-21
  6.14E-21  8.72E-21  4.48E-21  3.00E-21  2.34E-21  7.26E-21  5.15E-21  5.45E-21
  3.09E-21  8.09E-21  8.93E-21  3.12E-21  5.30E-21  3.47E-21  7.32E-21  8.84E-21
  2.58E-21  2.24E-21  8.03E-21  5.90E-21  7.82E-21  7.28E-21  5.51E-21  2.25E-21
  1.68E-12  1.36E-05
 -4.8073E+00 -4.8073E+00 -3.0444E+00 -3.0444E+00 -3.0433E+00 -3.0426E+00
 -3.0426E+00 -3.0416E+00 -1.7573E+00 -1.7573E+00 -1.7568E+00 -1.7563E+00
 -1.7563E+00 -1.7526E+00 -1.7522E+00 -1.7518E+00 -1.7484E+00 -1.7484E+00
 -1.7288E+00 -1.7274E+00 -1.7274E+00 -1.7266E+00 -1.7264E+00 -1.7221E+00
 -1.7218E+00 -1.7211E+00 -1.7177E+00 -1.7177E+00 -7.3442E-01 -7.3337E-01
 -7.3314E-01 -7.3241E-01 -7.3241E-01 -7.3056E-01 -7.3042E-01 -7.3030E-01
 -7.2932E-01 -7.2932E-01 -4.8053E-01 -4.6487E-01 -4.5265E-01 -4.2168E-01
[...]
  -0.25376   -0.25339   -0.24816   -0.24573   -0.17906   -0.15647   -0.14165   -0.09043
  -0.08480   -0.07908   -0.07617   -0.05998   -0.03299   -0.02415   -0.01420   -0.01131
  -0.01078    0.03237    0.07423    0.08749    0.12006    0.13269    0.19306    0.19490
   0.20750    0.21556
 prteigrs : prtvol=0 or 1, do not print more k-points.


--- !EnergyTerms
iteration_state     : {dtset: 3, }
comment             : Components of total free energy in Hartree
kinetic             :  5.73386636942855E+02
hartree             :  1.14963482468713E+03
xc                  : -1.83753532759321E+02
Ewald energy        :  2.72288370272812E+02
psp_core            :  1.49698195633781E+01
local_psp           : -2.54533079870942E+03
non_local_psp       : -3.36188092868943E+02
VdWaals_dft_d       : -6.74893134385723E-02
total_energy        : -1.05506026218495E+03
...


--- !EnergyTermsDC
iteration_state     : {dtset: 3, }
comment             : '"Double-counting" decomposition of free energy'
band_energy         : -1.50780863514259E+02
Ewald energy        :  2.72288370272812E+02
psp_core            :  1.49698195633781E+01
xc_dc               : -1.19147009919336E+03
VdWaals_dft_d       : -6.74893134385723E-02
total_energy_dc     : -1.05506026218486E+03
...


== END DATASET(S) ==============================================================
================================================================================
  
 -outvars: echo values of variables after computation  --------
            acell      7.7624316804E+00  7.7624316804E+00  7.7624316804E+00 Bohr
              amu      1.18710000E+02  7.89600000E+01  6.53900000E+01
           diemac      1.20000000E+01
        dosdeltae1     0.00000000E+00 Hartree
        dosdeltae2     0.00000000E+00 Hartree
        dosdeltae3     1.00000000E-03 Hartree
             ecut      2.25000000E+01 Hartree
           etotal1    -1.0550602622E+03
           etotal3    -1.0550602622E+03
            fcart1    -0.0000000000E+00 -0.0000000000E+00 -4.5290229024E-03
                      -0.0000000000E+00 -0.0000000000E+00  2.7496156971E-03
                      -0.0000000000E+00 -0.0000000000E+00 -7.3642729415E-03
                      -0.0000000000E+00 -0.0000000000E+00 -1.1438808673E-03
                      -0.0000000000E+00 -0.0000000000E+00  9.0455563620E-03
                      -0.0000000000E+00 -0.0000000000E+00 -1.2558542660E-02
                      -0.0000000000E+00 -0.0000000000E+00  6.9002736560E-03
                      -0.0000000000E+00 -0.0000000000E+00  6.9002736560E-03
-          fftalg         112
           getden1          0
           getden2          1
           getden3          1
           getwfk1          0
           getwfk2          0
           getwfk3          1
           iatsph3       1    3    6    7
             iscf1         17
             iscf2         -2
             iscf3         -3
           istwfk2       7    0    0    0    0    0    0    0    0    0
                         4    0    0    0    0    0    0    0    0    0
                         0    0    2    0    0    0    0    0    0    0
                         0    0    0    0    0    0    0    0    0    0
                         9    0    0    0    0    0    0    0    8    0
              ixc     -101130
           jdtset        1    2    3
              kpt1     6.25000000E-02  6.25000000E-02  5.00000000E-01
                       1.87500000E-01  6.25000000E-02  5.00000000E-01
                       3.12500000E-01  6.25000000E-02  5.00000000E-01
                       4.37500000E-01  6.25000000E-02  5.00000000E-01
                       1.87500000E-01  1.87500000E-01  5.00000000E-01
                       3.12500000E-01  1.87500000E-01  5.00000000E-01
                       4.37500000E-01  1.87500000E-01  5.00000000E-01
                       3.12500000E-01  3.12500000E-01  5.00000000E-01
                       4.37500000E-01  3.12500000E-01  5.00000000E-01
                       4.37500000E-01  4.37500000E-01  5.00000000E-01
              kpt2     5.00000000E-01  5.00000000E-01  0.00000000E+00
                       4.50000000E-01  4.50000000E-01  5.00000000E-02
                       4.00000000E-01  4.00000000E-01  1.00000000E-01
                       3.50000000E-01  3.50000000E-01  1.50000000E-01
                       3.00000000E-01  3.00000000E-01  2.00000000E-01
                       2.50000000E-01  2.50000000E-01  2.50000000E-01
                       2.00000000E-01  2.00000000E-01  3.00000000E-01
                       1.50000000E-01  1.50000000E-01  3.50000000E-01
                       1.00000000E-01  1.00000000E-01  4.00000000E-01
                       5.00000000E-02  5.00000000E-02  4.50000000E-01
                       0.00000000E+00  0.00000000E+00  5.00000000E-01
                       0.00000000E+00  0.00000000E+00  4.58333333E-01
                       0.00000000E+00  0.00000000E+00  4.16666667E-01
                       0.00000000E+00  0.00000000E+00  3.75000000E-01
                       0.00000000E+00  0.00000000E+00  3.33333333E-01
                       0.00000000E+00  0.00000000E+00  2.91666667E-01
                       0.00000000E+00  0.00000000E+00  2.50000000E-01
                       0.00000000E+00  0.00000000E+00  2.08333333E-01
                       0.00000000E+00  0.00000000E+00  1.66666667E-01
                       0.00000000E+00  0.00000000E+00  1.25000000E-01
                       0.00000000E+00  0.00000000E+00  8.33333333E-02
                       0.00000000E+00  0.00000000E+00  4.16666667E-02
                       0.00000000E+00  0.00000000E+00  0.00000000E+00
                       2.77777778E-02  2.77777778E-02  2.77777778E-02
                       5.55555556E-02  5.55555556E-02  5.55555556E-02
                       8.33333333E-02  8.33333333E-02  8.33333333E-02
                       1.11111111E-01  1.11111111E-01  1.11111111E-01
                       1.38888889E-01  1.38888889E-01  1.38888889E-01
                       1.66666667E-01  1.66666667E-01  1.66666667E-01
                       1.94444444E-01  1.94444444E-01  1.94444444E-01
                       2.22222222E-01  2.22222222E-01  2.22222222E-01
                       2.50000000E-01  2.50000000E-01  2.50000000E-01
                       2.77777778E-01  2.77777778E-01  2.77777778E-01
                       3.05555556E-01  3.05555556E-01  3.05555556E-01
                       3.33333333E-01  3.33333333E-01  3.33333333E-01
                       3.61111111E-01  3.61111111E-01  3.61111111E-01
                       3.88888889E-01  3.88888889E-01  3.88888889E-01
                       4.16666667E-01  4.16666667E-01  4.16666667E-01
                       4.44444444E-01  4.44444444E-01  4.44444444E-01
                       4.72222222E-01  4.72222222E-01  4.72222222E-01
                       5.00000000E-01  5.00000000E-01  5.00000000E-01
                       4.37500000E-01  5.00000000E-01  5.00000000E-01
                       3.75000000E-01  5.00000000E-01  5.00000000E-01
                       3.12500000E-01  5.00000000E-01  5.00000000E-01
                       2.50000000E-01  5.00000000E-01  5.00000000E-01
                       1.87500000E-01  5.00000000E-01  5.00000000E-01
                       1.25000000E-01  5.00000000E-01  5.00000000E-01
                       6.25000000E-02  5.00000000E-01  5.00000000E-01
                       0.00000000E+00  5.00000000E-01  5.00000000E-01
                       0.00000000E+00  5.00000000E-01  4.37500000E-01
              kpt3     6.25000000E-02  6.25000000E-02  5.00000000E-01
                       1.87500000E-01  6.25000000E-02  5.00000000E-01
                       3.12500000E-01  6.25000000E-02  5.00000000E-01
                       4.37500000E-01  6.25000000E-02  5.00000000E-01
                       1.87500000E-01  1.87500000E-01  5.00000000E-01
                       3.12500000E-01  1.87500000E-01  5.00000000E-01
                       4.37500000E-01  1.87500000E-01  5.00000000E-01
                       3.12500000E-01  3.12500000E-01  5.00000000E-01
                       4.37500000E-01  3.12500000E-01  5.00000000E-01
                       4.37500000E-01  4.37500000E-01  5.00000000E-01
                       outvar_i_n : Printing only first  50 k-points.
           kptopt1          1
           kptopt2         -5
           kptopt3          1
         kptrlatt        8    0    0      0    8    0      0    0    1
          kptrlen1     6.20994534E+01
          kptrlen2     3.00000000E+01
          kptrlen3     6.20994534E+01
P           mkmem1          2
P           mkmem2         10
P           mkmem3          2
            natom           8
           natsph3       4
            nband1         74
            nband2         74
            nband3         74
           nbdbuf1          0
           nbdbuf2          2
           nbdbuf3          2
           ndtset           3
            ngfft          36      36     150
             nkpt1         10
             nkpt2         57
             nkpt3         10
            nstep1       1000
            nstep2        300
            nstep3        300
             nsym           8
           ntypat           3
              occ      2.000000  2.000000  2.000000  2.000000  2.000000  2.000000
                       2.000000  2.000000  2.000000  2.000000  2.000000  2.000000
                       2.000000  2.000000  2.000000  2.000000  2.000000  2.000000
                       2.000000  2.000000  2.000000  2.000000  2.000000  2.000000
                       2.000000  2.000000  2.000000  2.000000  2.000000  2.000000
                       2.000000  2.000000  2.000000  2.000000  2.000000  2.000000
                       2.000000  2.000000  2.000000  2.000000  2.000000  2.000000
                       2.000000  2.000000  2.000000  2.000000  2.000000  2.000000
                       2.000000  2.000000  2.000000  2.000000  2.000000  2.000000
                       2.000000  2.000000  2.000000  2.000000  2.000000  2.000000
                       2.000000  2.000000  2.000000  2.000000  2.000000  2.000000
                       0.000000  0.000000  0.000000  0.000000  0.000000  0.000000
                       0.000000  0.000000
           prtcif           1
           prtdos1          0
           prtdos2          0
           prtdos3          3
            rprim      1.0000000000E+00  0.0000000000E+00  0.0000000000E+00
                       0.0000000000E+00  1.0000000000E+00  0.0000000000E+00
                       0.0000000000E+00  0.0000000000E+00  4.4638771264E+00
           shiftk      5.00000000E-01  5.00000000E-01  5.00000000E-01
          spgroup          99
           strten1     1.3831458144E-02  1.3831458144E-02  1.3876320506E-02
                       0.0000000000E+00  0.0000000000E+00  0.0000000000E+00
           symrel      1  0  0   0  1  0   0  0  1       1  0  0   0 -1  0   0  0  1
                      -1  0  0   0 -1  0   0  0  1      -1  0  0   0  1  0   0  0  1
                       0  1  0   1  0  0   0  0  1       0  1  0  -1  0  0   0  0  1
                       0 -1  0  -1  0  0   0  0  1       0 -1  0   1  0  0   0  0  1
            tnons      0.0000000  0.0000000  0.0000000     0.0000000  0.0000000  0.0000000
                       0.0000000  0.0000000  0.0000000     0.0000000  0.0000000  0.0000000
                       0.5000000  0.5000000  0.0000000     0.5000000  0.5000000  0.0000000
                       0.5000000  0.5000000  0.0000000     0.5000000  0.5000000  0.0000000
           tolwfr      1.00000000E-20
            typat      1  1  2  2  2  2  3  3
           vdw_xc           5
              wtk1       0.06250    0.12500    0.12500    0.12500    0.06250    0.12500
                         0.12500    0.06250    0.12500    0.06250
              wtk2       1.00000    1.00000    1.00000    1.00000    1.00000    1.00000
                         1.00000    1.00000    1.00000    1.00000    1.00000    1.00000
                         1.00000    1.00000    1.00000    1.00000    1.00000    1.00000
                         1.00000    1.00000    1.00000    1.00000    1.00000    1.00000
                         1.00000    1.00000    1.00000    1.00000    1.00000    1.00000
                         1.00000    1.00000    1.00000    1.00000    1.00000    1.00000
                         1.00000    1.00000    1.00000    1.00000    1.00000    1.00000
                         1.00000    1.00000    1.00000    1.00000    1.00000    1.00000
                         1.00000    1.00000
              wtk3       0.06250    0.12500    0.12500    0.12500    0.06250    0.12500
                         0.12500    0.06250    0.12500    0.06250
                       outvars : Printing only first  50 k-points.
           xangst      2.0538509643E+00  0.0000000000E+00  4.6664723976E+00
                       0.0000000000E+00  2.0538509643E+00  7.4160887673E+00
                       2.0538509643E+00  0.0000000000E+00  7.3843303361E+00
                       0.0000000000E+00  2.0538509643E+00  4.6982308288E+00
                       2.0538509643E+00  0.0000000000E+00  1.0679799326E+01
                       0.0000000000E+00  2.0538509643E+00  1.3669804283E+01
                       2.0538509643E+00  2.0538509643E+00  1.2174810973E+01
                       0.0000000000E+00  0.0000000000E+00  1.2174810973E+01
            xcart      3.8812158402E+00  0.0000000000E+00  8.8183548382E+00
                       0.0000000000E+00  3.8812158402E+00  1.4014376747E+01
                       3.8812158402E+00  0.0000000000E+00  1.3954362010E+01
                       0.0000000000E+00  3.8812158402E+00  8.8783695756E+00
                       3.8812158402E+00  0.0000000000E+00  2.0181895881E+01
                       0.0000000000E+00  3.8812158402E+00  2.5832186386E+01
                       3.8812158402E+00  3.8812158402E+00  2.3007058458E+01
                       0.0000000000E+00  0.0000000000E+00  2.3007058458E+01
             xred      5.0000000000E-01  0.0000000000E+00  2.5449400000E-01
                       0.0000000000E+00  5.0000000000E-01  4.0444900000E-01
                       5.0000000000E-01  0.0000000000E+00  4.0271700000E-01
                       0.0000000000E+00  5.0000000000E-01  2.5622600000E-01
                       5.0000000000E-01  0.0000000000E+00  5.8244100000E-01
                       0.0000000000E+00  5.0000000000E-01  7.4550600000E-01
                       5.0000000000E-01  5.0000000000E-01  6.6397400000E-01
                       0.0000000000E+00  0.0000000000E+00  6.6397400000E-01
            znucl       50.00000   34.00000   30.00000

================================================================================


- Timing analysis has been suppressed with timopt=0



================================================================================

 Suggested references for the acknowledgment of ABINIT usage.

 The users of ABINIT have little formal obligations with respect to the ABINIT group
 (those specified in the GNU General Public License, http://www.gnu.org/copyleft/gpl.txt).
 However, it is common practice in the scientific literature,
 to acknowledge the efforts of people that have made the research possible.
 In this spirit, please find below suggested citations of work written by ABINIT developers,
 corresponding to implementations inside of ABINIT that you have used in the present run.
 Note also that it will be of great value to readers of publications presenting these results,
 to read papers enabling them to understand the theoretical formalism and details
 of the ABINIT implementation.
 For information on why they are suggested, see also https://docs.abinit.org/theory/acknowledgments.
-
- [1] Libxc: A library of exchange and correlation functionals for density functional theory.
- M.A.L. Marques, M.J.T. Oliveira, T. Burnus, Computer Physics Communications 183, 2227 (2012).
- Comment: to be cited when LibXC is used (negative value of ixc)
- Strong suggestion to cite this paper.
- DOI and bibtex: see https://docs.abinit.org/theory/bibliography/#marques2012
-
- [2] The Abinit project: Impact, environment and recent developments.
- Computer Phys. Comm. 248, 107042 (2020).
- X.Gonze, B. Amadon, G. Antonius, F.Arnardi, L.Baguet, J.-M.Beuken,
- J.Bieder, F.Bottin, J.Bouchet, E.Bousquet, N.Brouwer, F.Bruneval,
- G.Brunin, T.Cavignac, J.-B. Charraud, Wei Chen, M.Cote, S.Cottenier,
- J.Denier, G.Geneste, Ph.Ghosez, M.Giantomassi, Y.Gillet, O.Gingras,
- D.R.Hamann, G.Hautier, Xu He, N.Helbig, N.Holzwarth, Y.Jia, F.Jollet,
- W.Lafargue-Dit-Hauret, K.Lejaeghere, M.A.L.Marques, A.Martin, C.Martins,
- H.P.C. Miranda, F.Naccarato, K. Persson, G.Petretto, V.Planes, Y.Pouillon,
- S.Prokhorenko, F.Ricci, G.-M.Rignanese, A.H.Romero, M.M.Schmitt, M.Torrent,
- M.J.van Setten, B.Van Troeye, M.J.Verstraete, G.Zerah and J.W.Zwanzig
- Comment: the fifth generic paper describing the ABINIT project.
- Note that a version of this paper, that is not formatted for Computer Phys. Comm. 
- is available at https://www.abinit.org/sites/default/files/ABINIT20.pdf .
- The licence allows the authors to put it on the Web.
- DOI and bibtex: see https://docs.abinit.org/theory/bibliography/#gonze2020
-
- [3] Optimized norm-conserving Vanderbilt pseudopotentials.
- D.R. Hamann, Phys. Rev. B 88, 085117 (2013).
- Comment: Some pseudopotential generated using the ONCVPSP code were used.
- DOI and bibtex: see https://docs.abinit.org/theory/bibliography/#hamann2013
-
- [4] ABINIT: Overview, and focus on selected capabilities
- J. Chem. Phys. 152, 124102 (2020).
- A. Romero, D.C. Allan, B. Amadon, G. Antonius, T. Applencourt, L.Baguet,
- J.Bieder, F.Bottin, J.Bouchet, E.Bousquet, F.Bruneval,
- G.Brunin, D.Caliste, M.Cote,
- J.Denier, C. Dreyer, Ph.Ghosez, M.Giantomassi, Y.Gillet, O.Gingras,
- D.R.Hamann, G.Hautier, F.Jollet, G. Jomard,
- A.Martin, 
- H.P.C. Miranda, F.Naccarato, G.Petretto, N.A. Pike, V.Planes,
- S.Prokhorenko, T. Rangel, F.Ricci, G.-M.Rignanese, M.Royo, M.Stengel, M.Torrent,
- M.J.van Setten, B.Van Troeye, M.J.Verstraete, J.Wiktor, J.W.Zwanziger, and X.Gonze.
- Comment: a global overview of ABINIT, with focus on selected capabilities .
- Note that a version of this paper, that is not formatted for J. Chem. Phys 
- is available at https://www.abinit.org/sites/default/files/ABINIT20_JPC.pdf .
- The licence allows the authors to put it on the Web.
- DOI and bibtex: see https://docs.abinit.org/theory/bibliography/#romero2020
-
- [5] Recent developments in the ABINIT software package.
- Computer Phys. Comm. 205, 106 (2016).
- X.Gonze, F.Jollet, F.Abreu Araujo, D.Adams, B.Amadon, T.Applencourt,
- C.Audouze, J.-M.Beuken, J.Bieder, A.Bokhanchuk, E.Bousquet, F.Bruneval
- D.Caliste, M.Cote, F.Dahm, F.Da Pieve, M.Delaveau, M.Di Gennaro,
- B.Dorado, C.Espejo, G.Geneste, L.Genovese, A.Gerossier, M.Giantomassi,
- Y.Gillet, D.R.Hamann, L.He, G.Jomard, J.Laflamme Janssen, S.Le Roux,
- A.Levitt, A.Lherbier, F.Liu, I.Lukacevic, A.Martin, C.Martins,
- M.J.T.Oliveira, S.Ponce, Y.Pouillon, T.Rangel, G.-M.Rignanese,
- A.H.Romero, B.Rousseau, O.Rubel, A.A.Shukri, M.Stankovski, M.Torrent,
- M.J.Van Setten, B.Van Troeye, M.J.Verstraete, D.Waroquier, J.Wiktor,
- B.Xu, A.Zhou, J.W.Zwanziger.
- Comment: the fourth generic paper describing the ABINIT project.
- Note that a version of this paper, that is not formatted for Computer Phys. Comm. 
- is available at https://www.abinit.org/sites/default/files/ABINIT16.pdf .
- The licence allows the authors to put it on the Web.
- DOI and bibtex: see https://docs.abinit.org/theory/bibliography/#gonze2016
-
- Proc.   0 individual time (sec): cpu=       2568.5  wall=       2568.6

================================================================================

 Calculation completed.
.Delivered   0 WARNINGs and   0 COMMENTs to log file.
+Overall time at end (sec) : cpu=      15411.0  wall=      15411.6
