
.Version 9.2.2 of ABINIT 
.(MPI version, prepared for a x86_64_linux_gnu9.3 computer) 

.Copyright (C) 1998-2020 ABINIT group . 
 ABINIT comes with ABSOLUTELY NO WARRANTY.
 It is free software, and you are welcome to redistribute it
 under certain conditions (GNU General Public License,
 see ~abinit/COPYING or http://www.gnu.org/copyleft/gpl.txt).

 ABINIT is a project of the Universite Catholique de Louvain,
 Corning Inc. and other collaborators, see ~abinit/doc/developers/contributors.txt .
 Please read https://docs.abinit.org/theory/acknowledgments for suggested
 acknowledgments of the ABINIT effort.
 For more information, see https://www.abinit.org .

.Starting date : Sat 24 Feb 2024.
- ( at 17h51 )
  
- The starting date is more than 3 years after the initial release
- of this version of ABINIT, namely Nov 2020.
- This version of ABINIT is not supported anymore.
- Action: please, switch to a more recent version of ABINIT.
- input  file    -> Cs2TiI6.in
- output file    -> Cs2TiI6.out
- root for input  files -> Cs2TiI6i
- root for output files -> Cs2TiI6o


 DATASET    1 : space group P4 m m (# 99); Bravais tP (primitive tetrag.)
================================================================================
 Values of the parameters that define the memory need for DATASET  1.
     intxc =       0    ionmov =       0      iscf =       7    lmnmax =       6
     lnmax =       6     mgfft =     120  mpssoang =       3    mqgrid =    5973
     natom =       6  nloc_mem =       1    nspden =       1   nspinor =       1
    nsppol =       1      nsym =       8    n1xccc =    2501    ntypat =       2
    occopt =       1   xclevel =       2
-    mband =          46        mffmem =           1         mkmem =           2
       mpw =        8614          nfft =      155520          nkpt =          10
================================================================================
P This job should need less than                      64.191 Mbytes of memory.
  Rough estimation (10% accuracy) of disk space for files :
_ WF disk file :     60.464 Mbytes ; DEN or POT disk file :      1.189 Mbytes.
================================================================================


 DATASET    2 : space group P4 m m (# 99); Bravais tP (primitive tetrag.)
================================================================================
 Values of the parameters that define the memory need for DATASET  2.
     intxc =       0    ionmov =       0      iscf =      -2    lmnmax =       6
     lnmax =       6     mgfft =     120  mpssoang =       3    mqgrid =    5973
     natom =       6  nloc_mem =       1    nspden =       1   nspinor =       1
    nsppol =       1      nsym =       8    n1xccc =    2501    ntypat =       2
    occopt =       1   xclevel =       2
-    mband =         150        mffmem =           1         mkmem =           2
       mpw =        8614          nfft =      155520          nkpt =          10
================================================================================
P This job should need less than                      71.384 Mbytes of memory.
  Rough estimation (10% accuracy) of disk space for files :
_ WF disk file :    197.161 Mbytes ; DEN or POT disk file :      1.189 Mbytes.
================================================================================


 DATASET    3 : space group P4 m m (# 99); Bravais tP (primitive tetrag.)
================================================================================
 Values of the parameters that define the memory need for DATASET  3.
     intxc =       0    ionmov =       0      iscf =      -2    lmnmax =       6
     lnmax =       6     mgfft =     120  mpssoang =       3    mqgrid =    5973
     natom =       6  nloc_mem =       1    nspden =       1   nspinor =       1
    nsppol =       1      nsym =       8    n1xccc =    2501    ntypat =       2
    occopt =       1   xclevel =       2
-    mband =         150        mffmem =           1         mkmem =          11
       mpw =        8614          nfft =      155520          nkpt =          64
================================================================================
P This job should need less than                     249.899 Mbytes of memory.
  Rough estimation (10% accuracy) of disk space for files :
_ WF disk file :   1261.818 Mbytes ; DEN or POT disk file :      1.189 Mbytes.
================================================================================


 DATASET    4 : space group P4 m m (# 99); Bravais tP (primitive tetrag.)
================================================================================
 Values of the parameters that define the memory need for DATASET  4 (RF).
     intxc =       0      iscf =      -3    lmnmax =       6     lnmax =       6
     mgfft =     120  mpssoang =       3    mqgrid =    5973     natom =       6
  nloc_mem =       1    nspden =       1   nspinor =       1    nsppol =       1
      nsym =       8    n1xccc =    2501    ntypat =       2    occopt =       1
   xclevel =       2
-    mband =         150        mffmem =           1         mkmem =          11
-   mkqmem =          11        mk1mem =          11           mpw =        8614
      nfft =      155520          nkpt =          64
================================================================================
P This job should need less than                     713.522 Mbytes of memory.
  Rough estimation (10% accuracy) of disk space for files :
_ WF disk file :   1261.818 Mbytes ; DEN or POT disk file :      1.189 Mbytes.
================================================================================


 DATASET    5 : space group P4 m m (# 99); Bravais tP (primitive tetrag.)
================================================================================
 Values of the parameters that define the memory need for DATASET  5 (RF).
     intxc =       0      iscf =      -3    lmnmax =       6     lnmax =       6
     mgfft =     120  mpssoang =       3    mqgrid =    5973     natom =       6
  nloc_mem =       1    nspden =       1   nspinor =       1    nsppol =       1
      nsym =       8    n1xccc =    2501    ntypat =       2    occopt =       1
   xclevel =       2
-    mband =         150        mffmem =           1         mkmem =          11
-   mkqmem =          11        mk1mem =          11           mpw =        8614
      nfft =      155520          nkpt =          64
================================================================================
P This job should need less than                     713.522 Mbytes of memory.
  Rough estimation (10% accuracy) of disk space for files :
_ WF disk file :   1261.818 Mbytes ; DEN or POT disk file :      1.189 Mbytes.
================================================================================


 DATASET    6 : space group P4 m m (# 99); Bravais tP (primitive tetrag.)
================================================================================
 Values of the parameters that define the memory need for DATASET  6 (RF).
     intxc =       0      iscf =      -3    lmnmax =       6     lnmax =       6
     mgfft =     120  mpssoang =       3    mqgrid =    5973     natom =       6
  nloc_mem =       1    nspden =       1   nspinor =       1    nsppol =       1
      nsym =       8    n1xccc =    2501    ntypat =       2    occopt =       1
   xclevel =       2
-    mband =         150        mffmem =           1         mkmem =          11
-   mkqmem =          11        mk1mem =          11           mpw =        8614
      nfft =      155520          nkpt =          64
================================================================================
P This job should need less than                     713.522 Mbytes of memory.
  Rough estimation (10% accuracy) of disk space for files :
_ WF disk file :   1261.818 Mbytes ; DEN or POT disk file :      1.189 Mbytes.
================================================================================

--------------------------------------------------------------------------------
------------- Echo of variables that govern the present computation ------------
--------------------------------------------------------------------------------
-
- outvars: echo of selected default values                                      
-   iomode0 =  0 , fftalg0 =112 , wfoptalg0 =  0
-
- outvars: echo of global parameters not present in the input file              
-  max_nthreads =    0
-
 -outvars: echo values of preprocessed input variables --------
            acell      7.7624316804E+00  7.7624316804E+00  7.7624316804E+00 Bohr
              amu      1.18710000E+02  7.89600000E+01
           diemac      1.20000000E+01
             ecut      2.25000000E+01 Hartree
-          fftalg         112
           getden1          0
           getden2          1
           getden3          1
           getden4          0
           getden5          0
           getden6          0
           getwfk1          0
           getwfk2          1
           getwfk3          2
           getwfk4          3
           getwfk5          3
           getwfk6          3
             iscf1          7
             iscf2         -2
             iscf3         -2
             iscf4         -3
             iscf5         -3
             iscf6         -3
              ixc          11
           jdtset        1    2    3    4    5    6
              kpt1     6.25000000E-02  6.25000000E-02  2.50000000E-01
                       1.87500000E-01  6.25000000E-02  2.50000000E-01
                       3.12500000E-01  6.25000000E-02  2.50000000E-01
                       4.37500000E-01  6.25000000E-02  2.50000000E-01
                       1.87500000E-01  1.87500000E-01  2.50000000E-01
                       3.12500000E-01  1.87500000E-01  2.50000000E-01
                       4.37500000E-01  1.87500000E-01  2.50000000E-01
                       3.12500000E-01  3.12500000E-01  2.50000000E-01
                       4.37500000E-01  3.12500000E-01  2.50000000E-01
                       4.37500000E-01  4.37500000E-01  2.50000000E-01
              kpt2     6.25000000E-02  6.25000000E-02  2.50000000E-01
                       1.87500000E-01  6.25000000E-02  2.50000000E-01
                       3.12500000E-01  6.25000000E-02  2.50000000E-01
                       4.37500000E-01  6.25000000E-02  2.50000000E-01
                       1.87500000E-01  1.87500000E-01  2.50000000E-01
                       3.12500000E-01  1.87500000E-01  2.50000000E-01
                       4.37500000E-01  1.87500000E-01  2.50000000E-01
                       3.12500000E-01  3.12500000E-01  2.50000000E-01
                       4.37500000E-01  3.12500000E-01  2.50000000E-01
                       4.37500000E-01  4.37500000E-01  2.50000000E-01
              kpt3     6.25000000E-02  6.25000000E-02  2.50000000E-01
                       1.87500000E-01  6.25000000E-02  2.50000000E-01
                       3.12500000E-01  6.25000000E-02  2.50000000E-01
                       4.37500000E-01  6.25000000E-02  2.50000000E-01
                      -4.37500000E-01  6.25000000E-02  2.50000000E-01
                      -3.12500000E-01  6.25000000E-02  2.50000000E-01
                      -1.87500000E-01  6.25000000E-02  2.50000000E-01
                      -6.25000000E-02  6.25000000E-02  2.50000000E-01
                       6.25000000E-02  1.87500000E-01  2.50000000E-01
                       1.87500000E-01  1.87500000E-01  2.50000000E-01
                       3.12500000E-01  1.87500000E-01  2.50000000E-01
                       4.37500000E-01  1.87500000E-01  2.50000000E-01
                      -4.37500000E-01  1.87500000E-01  2.50000000E-01
                      -3.12500000E-01  1.87500000E-01  2.50000000E-01
                      -1.87500000E-01  1.87500000E-01  2.50000000E-01
                      -6.25000000E-02  1.87500000E-01  2.50000000E-01
                       6.25000000E-02  3.12500000E-01  2.50000000E-01
                       1.87500000E-01  3.12500000E-01  2.50000000E-01
                       3.12500000E-01  3.12500000E-01  2.50000000E-01
                       4.37500000E-01  3.12500000E-01  2.50000000E-01
                      -4.37500000E-01  3.12500000E-01  2.50000000E-01
                      -3.12500000E-01  3.12500000E-01  2.50000000E-01
                      -1.87500000E-01  3.12500000E-01  2.50000000E-01
                      -6.25000000E-02  3.12500000E-01  2.50000000E-01
                       6.25000000E-02  4.37500000E-01  2.50000000E-01
                       1.87500000E-01  4.37500000E-01  2.50000000E-01
                       3.12500000E-01  4.37500000E-01  2.50000000E-01
                       4.37500000E-01  4.37500000E-01  2.50000000E-01
                      -4.37500000E-01  4.37500000E-01  2.50000000E-01
                      -3.12500000E-01  4.37500000E-01  2.50000000E-01
                      -1.87500000E-01  4.37500000E-01  2.50000000E-01
                      -6.25000000E-02  4.37500000E-01  2.50000000E-01
                       6.25000000E-02 -4.37500000E-01  2.50000000E-01
                       1.87500000E-01 -4.37500000E-01  2.50000000E-01
                       3.12500000E-01 -4.37500000E-01  2.50000000E-01
                       4.37500000E-01 -4.37500000E-01  2.50000000E-01
                      -4.37500000E-01 -4.37500000E-01  2.50000000E-01
                      -3.12500000E-01 -4.37500000E-01  2.50000000E-01
                      -1.87500000E-01 -4.37500000E-01  2.50000000E-01
                      -6.25000000E-02 -4.37500000E-01  2.50000000E-01
                       6.25000000E-02 -3.12500000E-01  2.50000000E-01
                       1.87500000E-01 -3.12500000E-01  2.50000000E-01
                       3.12500000E-01 -3.12500000E-01  2.50000000E-01
                       4.37500000E-01 -3.12500000E-01  2.50000000E-01
                      -4.37500000E-01 -3.12500000E-01  2.50000000E-01
                      -3.12500000E-01 -3.12500000E-01  2.50000000E-01
                      -1.87500000E-01 -3.12500000E-01  2.50000000E-01
                      -6.25000000E-02 -3.12500000E-01  2.50000000E-01
                       6.25000000E-02 -1.87500000E-01  2.50000000E-01
                       1.87500000E-01 -1.87500000E-01  2.50000000E-01
              kpt4     6.25000000E-02  6.25000000E-02  2.50000000E-01
                       1.87500000E-01  6.25000000E-02  2.50000000E-01
                       3.12500000E-01  6.25000000E-02  2.50000000E-01
                       4.37500000E-01  6.25000000E-02  2.50000000E-01
                      -4.37500000E-01  6.25000000E-02  2.50000000E-01
                      -3.12500000E-01  6.25000000E-02  2.50000000E-01
                      -1.87500000E-01  6.25000000E-02  2.50000000E-01
                      -6.25000000E-02  6.25000000E-02  2.50000000E-01
                       6.25000000E-02  1.87500000E-01  2.50000000E-01
                       1.87500000E-01  1.87500000E-01  2.50000000E-01
                       3.12500000E-01  1.87500000E-01  2.50000000E-01
                       4.37500000E-01  1.87500000E-01  2.50000000E-01
                      -4.37500000E-01  1.87500000E-01  2.50000000E-01
                      -3.12500000E-01  1.87500000E-01  2.50000000E-01
                      -1.87500000E-01  1.87500000E-01  2.50000000E-01
                      -6.25000000E-02  1.87500000E-01  2.50000000E-01
                       6.25000000E-02  3.12500000E-01  2.50000000E-01
                       1.87500000E-01  3.12500000E-01  2.50000000E-01
                       3.12500000E-01  3.12500000E-01  2.50000000E-01
                       4.37500000E-01  3.12500000E-01  2.50000000E-01
                      -4.37500000E-01  3.12500000E-01  2.50000000E-01
                      -3.12500000E-01  3.12500000E-01  2.50000000E-01
                      -1.87500000E-01  3.12500000E-01  2.50000000E-01
                      -6.25000000E-02  3.12500000E-01  2.50000000E-01
                       6.25000000E-02  4.37500000E-01  2.50000000E-01
                       1.87500000E-01  4.37500000E-01  2.50000000E-01
                       3.12500000E-01  4.37500000E-01  2.50000000E-01
                       4.37500000E-01  4.37500000E-01  2.50000000E-01
                      -4.37500000E-01  4.37500000E-01  2.50000000E-01
                      -3.12500000E-01  4.37500000E-01  2.50000000E-01
                      -1.87500000E-01  4.37500000E-01  2.50000000E-01
                      -6.25000000E-02  4.37500000E-01  2.50000000E-01
                       6.25000000E-02 -4.37500000E-01  2.50000000E-01
                       1.87500000E-01 -4.37500000E-01  2.50000000E-01
                       3.12500000E-01 -4.37500000E-01  2.50000000E-01
                       4.37500000E-01 -4.37500000E-01  2.50000000E-01
                      -4.37500000E-01 -4.37500000E-01  2.50000000E-01
                      -3.12500000E-01 -4.37500000E-01  2.50000000E-01
                      -1.87500000E-01 -4.37500000E-01  2.50000000E-01
                      -6.25000000E-02 -4.37500000E-01  2.50000000E-01
                       6.25000000E-02 -3.12500000E-01  2.50000000E-01
                       1.87500000E-01 -3.12500000E-01  2.50000000E-01
                       3.12500000E-01 -3.12500000E-01  2.50000000E-01
                       4.37500000E-01 -3.12500000E-01  2.50000000E-01
                      -4.37500000E-01 -3.12500000E-01  2.50000000E-01
                      -3.12500000E-01 -3.12500000E-01  2.50000000E-01
                      -1.87500000E-01 -3.12500000E-01  2.50000000E-01
                      -6.25000000E-02 -3.12500000E-01  2.50000000E-01
                       6.25000000E-02 -1.87500000E-01  2.50000000E-01
                       1.87500000E-01 -1.87500000E-01  2.50000000E-01
              kpt5     6.25000000E-02  6.25000000E-02  2.50000000E-01
                       1.87500000E-01  6.25000000E-02  2.50000000E-01
                       3.12500000E-01  6.25000000E-02  2.50000000E-01
                       4.37500000E-01  6.25000000E-02  2.50000000E-01
                      -4.37500000E-01  6.25000000E-02  2.50000000E-01
                      -3.12500000E-01  6.25000000E-02  2.50000000E-01
                      -1.87500000E-01  6.25000000E-02  2.50000000E-01
                      -6.25000000E-02  6.25000000E-02  2.50000000E-01
                       6.25000000E-02  1.87500000E-01  2.50000000E-01
                       1.87500000E-01  1.87500000E-01  2.50000000E-01
                       3.12500000E-01  1.87500000E-01  2.50000000E-01
                       4.37500000E-01  1.87500000E-01  2.50000000E-01
                      -4.37500000E-01  1.87500000E-01  2.50000000E-01
                      -3.12500000E-01  1.87500000E-01  2.50000000E-01
                      -1.87500000E-01  1.87500000E-01  2.50000000E-01
                      -6.25000000E-02  1.87500000E-01  2.50000000E-01
                       6.25000000E-02  3.12500000E-01  2.50000000E-01
                       1.87500000E-01  3.12500000E-01  2.50000000E-01
                       3.12500000E-01  3.12500000E-01  2.50000000E-01
                       4.37500000E-01  3.12500000E-01  2.50000000E-01
                      -4.37500000E-01  3.12500000E-01  2.50000000E-01
                      -3.12500000E-01  3.12500000E-01  2.50000000E-01
                      -1.87500000E-01  3.12500000E-01  2.50000000E-01
                      -6.25000000E-02  3.12500000E-01  2.50000000E-01
                       6.25000000E-02  4.37500000E-01  2.50000000E-01
                       1.87500000E-01  4.37500000E-01  2.50000000E-01
                       3.12500000E-01  4.37500000E-01  2.50000000E-01
                       4.37500000E-01  4.37500000E-01  2.50000000E-01
                      -4.37500000E-01  4.37500000E-01  2.50000000E-01
                      -3.12500000E-01  4.37500000E-01  2.50000000E-01
                      -1.87500000E-01  4.37500000E-01  2.50000000E-01
                      -6.25000000E-02  4.37500000E-01  2.50000000E-01
                       6.25000000E-02 -4.37500000E-01  2.50000000E-01
                       1.87500000E-01 -4.37500000E-01  2.50000000E-01
                       3.12500000E-01 -4.37500000E-01  2.50000000E-01
                       4.37500000E-01 -4.37500000E-01  2.50000000E-01
                      -4.37500000E-01 -4.37500000E-01  2.50000000E-01
                      -3.12500000E-01 -4.37500000E-01  2.50000000E-01
                      -1.87500000E-01 -4.37500000E-01  2.50000000E-01
                      -6.25000000E-02 -4.37500000E-01  2.50000000E-01
                       6.25000000E-02 -3.12500000E-01  2.50000000E-01
                       1.87500000E-01 -3.12500000E-01  2.50000000E-01
                       3.12500000E-01 -3.12500000E-01  2.50000000E-01
                       4.37500000E-01 -3.12500000E-01  2.50000000E-01
                      -4.37500000E-01 -3.12500000E-01  2.50000000E-01
                      -3.12500000E-01 -3.12500000E-01  2.50000000E-01
                      -1.87500000E-01 -3.12500000E-01  2.50000000E-01
                      -6.25000000E-02 -3.12500000E-01  2.50000000E-01
                       6.25000000E-02 -1.87500000E-01  2.50000000E-01
                       1.87500000E-01 -1.87500000E-01  2.50000000E-01
              kpt6     6.25000000E-02  6.25000000E-02  2.50000000E-01
                       1.87500000E-01  6.25000000E-02  2.50000000E-01
                       3.12500000E-01  6.25000000E-02  2.50000000E-01
                       4.37500000E-01  6.25000000E-02  2.50000000E-01
                      -4.37500000E-01  6.25000000E-02  2.50000000E-01
                      -3.12500000E-01  6.25000000E-02  2.50000000E-01
                      -1.87500000E-01  6.25000000E-02  2.50000000E-01
                      -6.25000000E-02  6.25000000E-02  2.50000000E-01
                       6.25000000E-02  1.87500000E-01  2.50000000E-01
                       1.87500000E-01  1.87500000E-01  2.50000000E-01
                       3.12500000E-01  1.87500000E-01  2.50000000E-01
                       4.37500000E-01  1.87500000E-01  2.50000000E-01
                      -4.37500000E-01  1.87500000E-01  2.50000000E-01
                      -3.12500000E-01  1.87500000E-01  2.50000000E-01
                      -1.87500000E-01  1.87500000E-01  2.50000000E-01
                      -6.25000000E-02  1.87500000E-01  2.50000000E-01
                       6.25000000E-02  3.12500000E-01  2.50000000E-01
                       1.87500000E-01  3.12500000E-01  2.50000000E-01
                       3.12500000E-01  3.12500000E-01  2.50000000E-01
                       4.37500000E-01  3.12500000E-01  2.50000000E-01
                      -4.37500000E-01  3.12500000E-01  2.50000000E-01
                      -3.12500000E-01  3.12500000E-01  2.50000000E-01
                      -1.87500000E-01  3.12500000E-01  2.50000000E-01
                      -6.25000000E-02  3.12500000E-01  2.50000000E-01
                       6.25000000E-02  4.37500000E-01  2.50000000E-01
                       1.87500000E-01  4.37500000E-01  2.50000000E-01
                       3.12500000E-01  4.37500000E-01  2.50000000E-01
                       4.37500000E-01  4.37500000E-01  2.50000000E-01
                      -4.37500000E-01  4.37500000E-01  2.50000000E-01
                      -3.12500000E-01  4.37500000E-01  2.50000000E-01
                      -1.87500000E-01  4.37500000E-01  2.50000000E-01
                      -6.25000000E-02  4.37500000E-01  2.50000000E-01
                       6.25000000E-02 -4.37500000E-01  2.50000000E-01
                       1.87500000E-01 -4.37500000E-01  2.50000000E-01
                       3.12500000E-01 -4.37500000E-01  2.50000000E-01
                       4.37500000E-01 -4.37500000E-01  2.50000000E-01
                      -4.37500000E-01 -4.37500000E-01  2.50000000E-01
                      -3.12500000E-01 -4.37500000E-01  2.50000000E-01
                      -1.87500000E-01 -4.37500000E-01  2.50000000E-01
                      -6.25000000E-02 -4.37500000E-01  2.50000000E-01
                       6.25000000E-02 -3.12500000E-01  2.50000000E-01
                       1.87500000E-01 -3.12500000E-01  2.50000000E-01
                       3.12500000E-01 -3.12500000E-01  2.50000000E-01
                       4.37500000E-01 -3.12500000E-01  2.50000000E-01
                      -4.37500000E-01 -3.12500000E-01  2.50000000E-01
                      -3.12500000E-01 -3.12500000E-01  2.50000000E-01
                      -1.87500000E-01 -3.12500000E-01  2.50000000E-01
                      -6.25000000E-02 -3.12500000E-01  2.50000000E-01
                       6.25000000E-02 -1.87500000E-01  2.50000000E-01
                       1.87500000E-01 -1.87500000E-01  2.50000000E-01
                       outvar_i_n : Printing only first  50 k-points.
           kptopt1          1
           kptopt2          1
           kptopt3          2
           kptopt4          2
           kptopt5          2
           kptopt6          2
         kptrlatt        8    0    0      0    8    0      0    0    2
          kptrlen      6.20994534E+01
P           mkmem1          2
P           mkmem2          2
P           mkmem3         11
P           mkmem4         11
P           mkmem5         11
P           mkmem6         11
P          mkqmem1          2
P          mkqmem2          2
P          mkqmem3         11
P          mkqmem4         11
P          mkqmem5         11
P          mkqmem6         11
P          mk1mem1          2
P          mk1mem2          2
P          mk1mem3         11
P          mk1mem4         11
P          mk1mem5         11
P          mk1mem6         11
            natom           6
            nband1         46
            nband2        150
            nband3        150
            nband4        150
            nband5        150
            nband6        150
           nbdbuf1          0
           nbdbuf2          2
           nbdbuf3          2
           nbdbuf4          2
           nbdbuf5          2
           nbdbuf6          2
           ndtset           6
            ngfft          36      36     120
             nkpt1         10
             nkpt2         10
             nkpt3         64
             nkpt4         64
             nkpt5         64
             nkpt6         64
            nline1          4
            nline2          4
            nline3          4
            nline4          0
            nline5          0
            nline6          0
             nqpt1          0
             nqpt2          0
             nqpt3          0
             nqpt4          1
             nqpt5          1
             nqpt6          1
            nstep1        400
            nstep2        200
            nstep3        200
            nstep4          1
            nstep5          1
            nstep6          1
             nsym           8
           ntypat           2
              occ1     2.000000  2.000000  2.000000  2.000000  2.000000  2.000000
                       2.000000  2.000000  2.000000  2.000000  2.000000  2.000000
                       2.000000  2.000000  2.000000  2.000000  2.000000  2.000000
                       2.000000  2.000000  2.000000  2.000000  2.000000  2.000000
                       2.000000  2.000000  2.000000  2.000000  2.000000  2.000000
                       2.000000  2.000000  2.000000  2.000000  2.000000  2.000000
                       2.000000  2.000000  2.000000  2.000000  2.000000  2.000000
                       2.000000  2.000000  2.000000  0.000000
              occ4     2.000000  2.000000  2.000000  2.000000  2.000000  2.000000
                       2.000000  2.000000  2.000000  2.000000  2.000000  2.000000
                       2.000000  2.000000  2.000000  2.000000  2.000000  2.000000
                       2.000000  2.000000  2.000000  2.000000  2.000000  2.000000
                       2.000000  2.000000  2.000000  2.000000  2.000000  2.000000
                       2.000000  2.000000  2.000000  2.000000  2.000000  2.000000
                       2.000000  2.000000  2.000000  2.000000  2.000000  2.000000
                       2.000000  2.000000  2.000000  0.000000  0.000000  0.000000
                       0.000000  0.000000  0.000000  0.000000  0.000000  0.000000
                       0.000000  0.000000  0.000000  0.000000  0.000000  0.000000
                       0.000000  0.000000  0.000000  0.000000  0.000000  0.000000
                       0.000000  0.000000  0.000000  0.000000  0.000000  0.000000
                       0.000000  0.000000  0.000000  0.000000  0.000000  0.000000
                       0.000000  0.000000  0.000000  0.000000  0.000000  0.000000
                       0.000000  0.000000  0.000000  0.000000  0.000000  0.000000
                       0.000000  0.000000  0.000000  0.000000  0.000000  0.000000
                       0.000000  0.000000  0.000000  0.000000  0.000000  0.000000
                       0.000000  0.000000  0.000000  0.000000  0.000000  0.000000
                       0.000000  0.000000  0.000000  0.000000  0.000000  0.000000
                       0.000000  0.000000  0.000000  0.000000  0.000000  0.000000
                       0.000000  0.000000  0.000000  0.000000  0.000000  0.000000
                       0.000000  0.000000  0.000000  0.000000  0.000000  0.000000
                       0.000000  0.000000  0.000000  0.000000  0.000000  0.000000
                       0.000000  0.000000  0.000000  0.000000  0.000000  0.000000
                       0.000000  0.000000  0.000000  0.000000  0.000000  0.000000
              occ5     2.000000  2.000000  2.000000  2.000000  2.000000  2.000000
                       2.000000  2.000000  2.000000  2.000000  2.000000  2.000000
                       2.000000  2.000000  2.000000  2.000000  2.000000  2.000000
                       2.000000  2.000000  2.000000  2.000000  2.000000  2.000000
                       2.000000  2.000000  2.000000  2.000000  2.000000  2.000000
                       2.000000  2.000000  2.000000  2.000000  2.000000  2.000000
                       2.000000  2.000000  2.000000  2.000000  2.000000  2.000000
                       2.000000  2.000000  2.000000  0.000000  0.000000  0.000000
                       0.000000  0.000000  0.000000  0.000000  0.000000  0.000000
                       0.000000  0.000000  0.000000  0.000000  0.000000  0.000000
                       0.000000  0.000000  0.000000  0.000000  0.000000  0.000000
                       0.000000  0.000000  0.000000  0.000000  0.000000  0.000000
                       0.000000  0.000000  0.000000  0.000000  0.000000  0.000000
                       0.000000  0.000000  0.000000  0.000000  0.000000  0.000000
                       0.000000  0.000000  0.000000  0.000000  0.000000  0.000000
                       0.000000  0.000000  0.000000  0.000000  0.000000  0.000000
                       0.000000  0.000000  0.000000  0.000000  0.000000  0.000000
                       0.000000  0.000000  0.000000  0.000000  0.000000  0.000000
                       0.000000  0.000000  0.000000  0.000000  0.000000  0.000000
                       0.000000  0.000000  0.000000  0.000000  0.000000  0.000000
                       0.000000  0.000000  0.000000  0.000000  0.000000  0.000000
                       0.000000  0.000000  0.000000  0.000000  0.000000  0.000000
                       0.000000  0.000000  0.000000  0.000000  0.000000  0.000000
                       0.000000  0.000000  0.000000  0.000000  0.000000  0.000000
                       0.000000  0.000000  0.000000  0.000000  0.000000  0.000000
              occ6     2.000000  2.000000  2.000000  2.000000  2.000000  2.000000
                       2.000000  2.000000  2.000000  2.000000  2.000000  2.000000
                       2.000000  2.000000  2.000000  2.000000  2.000000  2.000000
                       2.000000  2.000000  2.000000  2.000000  2.000000  2.000000
                       2.000000  2.000000  2.000000  2.000000  2.000000  2.000000
                       2.000000  2.000000  2.000000  2.000000  2.000000  2.000000
                       2.000000  2.000000  2.000000  2.000000  2.000000  2.000000
                       2.000000  2.000000  2.000000  0.000000  0.000000  0.000000
                       0.000000  0.000000  0.000000  0.000000  0.000000  0.000000
                       0.000000  0.000000  0.000000  0.000000  0.000000  0.000000
                       0.000000  0.000000  0.000000  0.000000  0.000000  0.000000
                       0.000000  0.000000  0.000000  0.000000  0.000000  0.000000
                       0.000000  0.000000  0.000000  0.000000  0.000000  0.000000
                       0.000000  0.000000  0.000000  0.000000  0.000000  0.000000
                       0.000000  0.000000  0.000000  0.000000  0.000000  0.000000
                       0.000000  0.000000  0.000000  0.000000  0.000000  0.000000
                       0.000000  0.000000  0.000000  0.000000  0.000000  0.000000
                       0.000000  0.000000  0.000000  0.000000  0.000000  0.000000
                       0.000000  0.000000  0.000000  0.000000  0.000000  0.000000
                       0.000000  0.000000  0.000000  0.000000  0.000000  0.000000
                       0.000000  0.000000  0.000000  0.000000  0.000000  0.000000
                       0.000000  0.000000  0.000000  0.000000  0.000000  0.000000
                       0.000000  0.000000  0.000000  0.000000  0.000000  0.000000
                       0.000000  0.000000  0.000000  0.000000  0.000000  0.000000
                       0.000000  0.000000  0.000000  0.000000  0.000000  0.000000
        optdriver1          0
        optdriver2          0
        optdriver3          0
        optdriver4          1
        optdriver5          1
        optdriver6          1
            prtwf1          1
            prtwf2          1
            prtwf3          1
            prtwf4          3
            prtwf5          3
            prtwf6          3
            rfdir1          0       0       0
            rfdir2          0       0       0
            rfdir3          0       0       0
            rfdir4          1       0       0
            rfdir5          0       1       0
            rfdir6          0       0       1
           rfelfd1          0
           rfelfd2          0
           rfelfd3          0
           rfelfd4          2
           rfelfd5          2
           rfelfd6          2
            rprim      1.0000000000E+00  0.0000000000E+00  0.0000000000E+00
                       0.0000000000E+00  1.0000000000E+00  0.0000000000E+00
                       0.0000000000E+00  0.0000000000E+00  3.6030921912E+00
           shiftk      5.00000000E-01  5.00000000E-01  5.00000000E-01
          spgroup          99
           symrel      1  0  0   0  1  0   0  0  1       1  0  0   0 -1  0   0  0  1
                      -1  0  0   0 -1  0   0  0  1      -1  0  0   0  1  0   0  0  1
                       0  1  0   1  0  0   0  0  1       0  1  0  -1  0  0   0  0  1
                       0 -1  0  -1  0  0   0  0  1       0 -1  0   1  0  0   0  0  1
            tnons      0.0000000  0.0000000  0.0000000     0.0000000  0.0000000  0.0000000
                      -0.0000000  0.0000000  0.0000000    -0.0000000  0.0000000  0.0000000
                       0.5000000  0.5000000  0.0000000     0.5000000  0.5000000  0.0000000
                       0.5000000  0.5000000  0.0000000     0.5000000  0.5000000  0.0000000
           tolwfr      1.00000000E-20
            typat      1  1  1  2  2  2
           vdw_xc           5
              wtk1       0.06250    0.12500    0.12500    0.12500    0.06250    0.12500
                         0.12500    0.06250    0.12500    0.06250
              wtk2       0.06250    0.12500    0.12500    0.12500    0.06250    0.12500
                         0.12500    0.06250    0.12500    0.06250
              wtk3       0.01563    0.01563    0.01563    0.01563    0.01563    0.01563
                         0.01563    0.01563    0.01563    0.01563    0.01563    0.01563
                         0.01563    0.01563    0.01563    0.01563    0.01563    0.01563
                         0.01563    0.01563    0.01563    0.01563    0.01563    0.01563
                         0.01563    0.01563    0.01563    0.01563    0.01563    0.01563
                         0.01563    0.01563    0.01563    0.01563    0.01563    0.01563
                         0.01563    0.01563    0.01563    0.01563    0.01563    0.01563
                         0.01563    0.01563    0.01563    0.01563    0.01563    0.01563
                         0.01563    0.01563
              wtk4       0.01563    0.01563    0.01563    0.01563    0.01563    0.01563
                         0.01563    0.01563    0.01563    0.01563    0.01563    0.01563
                         0.01563    0.01563    0.01563    0.01563    0.01563    0.01563
                         0.01563    0.01563    0.01563    0.01563    0.01563    0.01563
                         0.01563    0.01563    0.01563    0.01563    0.01563    0.01563
                         0.01563    0.01563    0.01563    0.01563    0.01563    0.01563
                         0.01563    0.01563    0.01563    0.01563    0.01563    0.01563
                         0.01563    0.01563    0.01563    0.01563    0.01563    0.01563
                         0.01563    0.01563
              wtk5       0.01563    0.01563    0.01563    0.01563    0.01563    0.01563
                         0.01563    0.01563    0.01563    0.01563    0.01563    0.01563
                         0.01563    0.01563    0.01563    0.01563    0.01563    0.01563
                         0.01563    0.01563    0.01563    0.01563    0.01563    0.01563
                         0.01563    0.01563    0.01563    0.01563    0.01563    0.01563
                         0.01563    0.01563    0.01563    0.01563    0.01563    0.01563
                         0.01563    0.01563    0.01563    0.01563    0.01563    0.01563
                         0.01563    0.01563    0.01563    0.01563    0.01563    0.01563
                         0.01563    0.01563
              wtk6       0.01563    0.01563    0.01563    0.01563    0.01563    0.01563
                         0.01563    0.01563    0.01563    0.01563    0.01563    0.01563
                         0.01563    0.01563    0.01563    0.01563    0.01563    0.01563
                         0.01563    0.01563    0.01563    0.01563    0.01563    0.01563
                         0.01563    0.01563    0.01563    0.01563    0.01563    0.01563
                         0.01563    0.01563    0.01563    0.01563    0.01563    0.01563
                         0.01563    0.01563    0.01563    0.01563    0.01563    0.01563
                         0.01563    0.01563    0.01563    0.01563    0.01563    0.01563
                         0.01563    0.01563
                       outvars : Printing only first  50 k-points.
           xangst      2.0538509643E+00  0.0000000000E+00  4.6664715795E+00
                       0.0000000000E+00  2.0538509643E+00  7.4160952313E+00
                       2.0538509643E+00  0.0000000000E+00  1.0102195443E+01
                       0.0000000000E+00  2.0538509643E+00  4.6982332996E+00
                       2.0538509643E+00  0.0000000000E+00  7.3843335112E+00
                       0.0000000000E+00  2.0538509643E+00  1.0133957163E+01
            xcart      3.8812158402E+00  0.0000000000E+00  8.8183532921E+00
                       0.0000000000E+00  3.8812158402E+00  1.4014388962E+01
                       3.8812158402E+00  0.0000000000E+00  1.9090382728E+01
                       0.0000000000E+00  3.8812158402E+00  8.8783742446E+00
                       3.8812158402E+00  0.0000000000E+00  1.3954368010E+01
                       0.0000000000E+00  3.8812158402E+00  1.9150403680E+01
             xred      5.0000000000E-01  0.0000000000E+00  3.1529300000E-01
                       0.0000000000E+00  5.0000000000E-01  5.0107300000E-01
                       5.0000000000E-01  0.0000000000E+00  6.8256100000E-01
                       0.0000000000E+00  5.0000000000E-01  3.1743900000E-01
                       5.0000000000E-01  0.0000000000E+00  4.9892700000E-01
                       0.0000000000E+00  5.0000000000E-01  6.8470700000E-01
            znucl       50.00000   34.00000

================================================================================

 chkinp: Checking input parameters for consistency, jdtset=   1.

 chkinp: Checking input parameters for consistency, jdtset=   2.

 chkinp: Checking input parameters for consistency, jdtset=   3.

 chkinp: Checking input parameters for consistency, jdtset=   4.

 chkinp: Checking input parameters for consistency, jdtset=   5.

 chkinp: Checking input parameters for consistency, jdtset=   6.

================================================================================
== DATASET  1 ==================================================================
-   mpi_nproc: 6, omp_nthreads: -1 (-1 if OMP is not activated)


--- !DatasetInfo
iteration_state: {dtset: 1, }
dimensions: {natom: 6, nkpt: 10, mband: 46, nsppol: 1, nspinor: 1, nspden: 1, mpw: 8614, }
cutoff_energies: {ecut:  22.5, pawecutdg:  -1.0, }
electrons: {nelect:   9.00000000E+01, charge:   0.00000000E+00, occopt:   1.00000000E+00, tsmear:   1.00000000E-02, }
meta: {optdriver: 0, ionmov: 0, optcell: 0, iscf: 7, paral_kgb: 0, }
...

 Exchange-correlation functional for the present dataset will be:
  GGA: Perdew-Burke-Ernzerhof functional - ixc=11
 Citation for XC functional:
  J.P.Perdew, K.Burke, M.Ernzerhof, PRL 77, 3865 (1996)

 Real(R)+Recip(G) space primitive vectors, cartesian coordinates (Bohr,Bohr^-1):
 R(1)=  7.7624317  0.0000000  0.0000000  G(1)=  0.1288256  0.0000000  0.0000000
 R(2)=  0.0000000  7.7624317  0.0000000  G(2)=  0.0000000  0.1288256  0.0000000
 R(3)=  0.0000000  0.0000000 27.9687570  G(3)=  0.0000000  0.0000000  0.0357542
 Unit cell volume ucvol=  1.6852671E+03 bohr^3
 Angles (23,13,12)=  9.00000000E+01  9.00000000E+01  9.00000000E+01 degrees

 getcut: wavevector=  0.0000  0.0000  0.0000  ngfft=  36  36 120
         ecut(hartree)=     22.500   => boxcut(ratio)=   2.00933

--- Pseudopotential description ------------------------------------------------
- pspini: atom type   1  psp file is ../../../Psps_for_tests/ATOMICDATA_NC/Sn.psp8
- pspatm: opening atomic psp file    ../../../Psps_for_tests/ATOMICDATA_NC/Sn.psp8
- Sn    ONCVPSP  r_core=  2.27  2.62  1.86
- 50.00000  14.00000    150810                znucl, zion, pspdat
    8   11    2    4       600   0.00000      pspcod,pspxc,lmax,lloc,mmax,r2well
    5.99000000000000    6.50000000000000    0.00000000000000   rchrg,fchrg,qchrg
     nproj     2     2     2
     extension_switch     1
  pspatm : epsatm=   32.65190642
         --- l  ekb(1:nproj) -->
             0    5.462393    0.682281
             1    4.443814    0.825686
             2   -5.382195   -1.704077
 pspatm: atomic psp has been read  and splines computed

- pspini: atom type   2  psp file is ../../../Psps_for_tests/ATOMICDATA_NC/Se.psp8
- pspatm: opening atomic psp file    ../../../Psps_for_tests/ATOMICDATA_NC/Se.psp8
- Se    ONCVPSP  r_core=  1.82  1.50  1.91
- 34.00000  16.00000    150729                znucl, zion, pspdat
    8   11    2    4       600   0.00000      pspcod,pspxc,lmax,lloc,mmax,r2well
    5.99000000000000    5.00000000000000    0.00000000000000   rchrg,fchrg,qchrg
     nproj     2     2     2
     extension_switch     1
  pspatm : epsatm=   29.53325930
         --- l  ekb(1:nproj) -->
             0    8.612261    0.939919
             1    6.984962    1.281898
             2   -9.322521   -3.856218
 pspatm: atomic psp has been read  and splines computed

   1.67899947E+04                                ecore*ucvol(ha*bohr**3)
--------------------------------------------------------------------------------

_setup2: Arith. and geom. avg. npw (full set) are    8591.563    8591.557

================================================================================

--- !BeginCycle
iteration_state: {dtset: 1, }
solver: {iscf: 7, nstep: 400, nline: 4, wfoptalg: 0, }
tolerances: {tolwfr: 1.00E-20, }
...

     iter   Etot(hartree)      deltaE(h)  residm     vres2
 ETOT  1  -580.04041534942    -5.800E+02 8.015E-01 5.752E+04
 ETOT  2  -595.69031239810    -1.565E+01 5.733E-02 1.335E+04
 ETOT  3  -596.65160898840    -9.613E-01 1.226E-02 4.821E+03
 ETOT  4  -596.74554880739    -9.394E-02 2.841E-03 2.559E+03
 ETOT  5  -596.78476609555    -3.922E-02 4.478E-03 1.344E+03
 ETOT  6  -596.79310361506    -8.338E-03 7.617E-04 1.003E+03
 ETOT  7  -596.79990747021    -6.804E-03 6.242E-04 6.853E+02
 ETOT  8  -596.80469968984    -4.792E-03 7.128E-05 4.501E+02
 ETOT  9  -596.80689735217    -2.198E-03 5.123E-05 3.327E+02
 ETOT 10  -596.81241924575    -5.522E-03 1.324E-04 5.008E+01
 ETOT 11  -596.81248550549    -6.626E-05 1.558E-04 3.995E+01
 ETOT 12  -596.81249103001    -5.525E-06 3.714E-05 3.354E+01
 ETOT 13  -596.81259652482    -1.055E-04 1.097E-04 2.034E+01
 ETOT 14  -596.81263264533    -3.612E-05 4.165E-05 6.799E+00
 ETOT 15  -596.81266493332    -3.229E-05 3.277E-05 4.958E+00
 ETOT 16  -596.81264927173     1.566E-05 2.738E-05 3.181E+00
 ETOT 17  -596.81267311247    -2.384E-05 1.247E-05 3.218E-01
 ETOT 18  -596.81267430484    -1.192E-06 3.452E-05 1.599E-01
 ETOT 19  -596.81267527631    -9.715E-07 5.258E-06 6.880E-02
 ETOT 20  -596.81267542471    -1.484E-07 2.231E-05 8.335E-03
 ETOT 21  -596.81267558368    -1.590E-07 1.668E-06 8.814E-04
 ETOT 22  -596.81267561205    -2.837E-08 5.122E-06 2.766E-05
 ETOT 23  -596.81267561371    -1.667E-09 3.666E-07 1.134E-05
 ETOT 24  -596.81267561382    -1.052E-10 1.381E-06 9.023E-06
 ETOT 25  -596.81267561393    -1.135E-10 2.074E-07 4.109E-07
 ETOT 26  -596.81267561403    -9.607E-11 2.987E-07 1.306E-07
 ETOT 27  -596.81267561396     6.730E-11 1.222E-07 1.270E-08
 ETOT 28  -596.81267561397    -6.480E-12 1.349E-07 1.990E-09
 ETOT 29  -596.81267561399    -2.206E-11 7.180E-08 3.708E-10
 ETOT 30  -596.81267561400    -8.527E-12 7.897E-08 4.993E-10
 ETOT 31  -596.81267561399     8.981E-12 4.213E-08 1.802E-10
 ETOT 32  -596.81267561398     8.413E-12 4.617E-08 4.327E-11
 ETOT 33  -596.81267561398    -4.547E-12 2.470E-08 6.256E-12
 ETOT 34  -596.81267561401    -2.217E-11 2.696E-08 5.175E-12
 ETOT 35  -596.81267561400     8.981E-12 1.447E-08 2.001E-13
 ETOT 36  -596.81267561400    -2.387E-12 1.574E-08 5.811E-14
 ETOT 37  -596.81267561404    -4.036E-11 8.476E-09 1.534E-14
 ETOT 38  -596.81267561402     2.035E-11 9.188E-09 9.284E-16
 ETOT 39  -596.81267561403    -1.239E-11 4.965E-09 3.045E-16
 ETOT 40  -596.81267561400     2.922E-11 5.362E-09 2.099E-16
 ETOT 41  -596.81267561401    -7.617E-12 2.908E-09 1.033E-16
 ETOT 42  -596.81267561400     1.046E-11 3.130E-09 6.381E-17
 ETOT 43  -596.81267561401    -8.640E-12 1.704E-09 4.456E-17
 ETOT 44  -596.81267561401     2.274E-13 1.828E-09 2.972E-17
 ETOT 45  -596.81267561402    -9.209E-12 9.983E-10 1.946E-17
 ETOT 46  -596.81267561401     7.958E-12 1.068E-09 1.301E-17
 ETOT 47  -596.81267561401    -1.137E-13 5.851E-10 1.119E-17
 ETOT 48  -596.81267561401     2.160E-12 6.239E-10 9.782E-18
 ETOT 49  -596.81267561401    -2.274E-12 3.431E-10 8.491E-18
 ETOT 50  -596.81267561401     3.183E-12 3.647E-10 7.827E-18
 ETOT 51  -596.81267561401    -3.752E-12 2.012E-10 7.751E-18
 ETOT 52  -596.81267561401     1.364E-12 2.133E-10 6.829E-18
 ETOT 53  -596.81267561401     1.364E-12 1.180E-10 6.227E-18
 ETOT 54  -596.81267561401    -6.821E-13 1.248E-10 5.146E-18
 ETOT 55  -596.81267561401    -1.592E-12 6.927E-11 5.362E-18
 ETOT 56  -596.81267561401     2.274E-13 7.308E-11 4.699E-18
 ETOT 57  -596.81267561401     9.095E-13 4.066E-11 5.044E-18
 ETOT 58  -596.81267561401    -3.297E-12 4.280E-11 4.702E-18
 ETOT 59  -596.81267561401     1.933E-12 2.388E-11 4.034E-18
 ETOT 60  -596.81267561401    -1.592E-12 2.508E-11 4.103E-18
 ETOT 61  -596.81267561401     1.251E-12 1.402E-11 3.361E-18
 ETOT 62  -596.81267561401     1.023E-12 1.470E-11 3.495E-18
 ETOT 63  -596.81267561401    -2.387E-12 8.239E-12 2.988E-18
 ETOT 64  -596.81267561401     9.095E-13 8.621E-12 3.210E-18
 ETOT 65  -596.81267561401    -1.023E-12 4.841E-12 2.542E-18
 ETOT 66  -596.81267561402    -3.070E-12 5.057E-12 2.562E-18
 ETOT 67  -596.81267561401     1.705E-12 2.845E-12 2.596E-18
 ETOT 68  -596.81267561401     1.137E-13 2.968E-12 2.556E-18
 ETOT 69  -596.81267561401     1.705E-12 1.673E-12 2.349E-18
 ETOT 70  -596.81267561401     1.364E-12 1.742E-12 2.009E-18
 ETOT 71  -596.81267561401     0.000E+00 9.835E-13 2.020E-18
 ETOT 72  -596.81267561401    -2.046E-12 1.023E-12 2.352E-18
 ETOT 73  -596.81267561401     3.411E-13 5.784E-13 2.490E-18
 ETOT 74  -596.81267561401    -1.137E-13 6.007E-13 2.404E-18
 ETOT 75  -596.81267561401     0.000E+00 3.402E-13 1.886E-18
 ETOT 76  -596.81267561402    -3.183E-12 3.529E-13 2.002E-18
 ETOT 77  -596.81267561402     2.274E-13 2.001E-13 2.009E-18
 ETOT 78  -596.81267561402    -2.274E-12 2.073E-13 2.026E-18
 ETOT 79  -596.81267561402     1.592E-12 1.177E-13 2.320E-18
 ETOT 80  -596.81267561402     4.547E-13 1.218E-13 1.948E-18
 ETOT 81  -596.81267561402    -4.547E-13 6.927E-14 1.791E-18
 ETOT 82  -596.81267561402    -2.274E-13 7.162E-14 1.845E-18
 ETOT 83  -596.81267561402     4.547E-13 4.076E-14 1.701E-18
 ETOT 84  -596.81267561402    -2.274E-13 4.210E-14 1.722E-18
 ETOT 85  -596.81267561401     1.137E-12 2.399E-14 1.733E-18
 ETOT 86  -596.81267561402    -6.821E-13 2.476E-14 2.116E-18
 ETOT 87  -596.81267561402    -2.274E-13 1.412E-14 1.584E-18
 ETOT 88  -596.81267561402     4.547E-13 1.456E-14 1.992E-18
 ETOT 89  -596.81267561402    -1.251E-12 8.309E-15 2.106E-18
 ETOT 90  -596.81267561402    -1.137E-13 8.563E-15 1.667E-18
 ETOT 91  -596.81267561402     5.684E-13 4.891E-15 1.468E-18
 ETOT 92  -596.81267561402     5.684E-13 5.037E-15 1.919E-18
 ETOT 93  -596.81267561401     1.251E-12 2.879E-15 1.447E-18
 ETOT 94  -596.81267561401    -1.137E-13 2.963E-15 2.043E-18
 ETOT 95  -596.81267561401     1.364E-12 1.695E-15 1.728E-18
 ETOT 96  -596.81267561401    -5.684E-13 1.743E-15 1.715E-18
 ETOT 97  -596.81267561401     1.023E-12 9.979E-16 1.685E-18
 ETOT 98  -596.81267561401     2.274E-13 1.026E-15 1.573E-18
 ETOT 99  -596.81267561401     6.821E-13 5.875E-16 1.803E-18
 ETOT  100  -596.81267561401     2.274E-13 6.036E-16 1.929E-18
 ETOT  101  -596.81267561401     4.547E-13 3.459E-16 1.234E-18
 ETOT  102  -596.81267561401    -1.137E-13 3.552E-16 1.818E-18
 ETOT  103  -596.81267561401     1.137E-13 2.037E-16 2.174E-18
 ETOT  104  -596.81267561401     1.023E-12 2.090E-16 1.406E-18
 ETOT  105  -596.81267561401     0.000E+00 1.199E-16 1.591E-18
 ETOT  106  -596.81267561401     3.411E-13 1.230E-16 1.833E-18
 ETOT  107  -596.81267561401    -2.274E-13 7.062E-17 1.613E-18
 ETOT  108  -596.81267561401     0.000E+00 7.242E-17 1.588E-18
 ETOT  109  -596.81267561401     2.274E-13 4.158E-17 1.730E-18
 ETOT  110  -596.81267561401     1.137E-13 4.263E-17 2.018E-18
 ETOT  111  -596.81267561401     3.411E-13 2.449E-17 2.006E-18
 ETOT  112  -596.81267561401     4.547E-13 2.509E-17 1.861E-18
 ETOT  113  -596.81267561401    -3.411E-13 1.442E-17 2.047E-18
 ETOT  114  -596.81267561401    -1.137E-13 1.477E-17 1.991E-18
 ETOT  115  -596.81267561401    -1.137E-12 8.492E-18 1.231E-18
 ETOT  116  -596.81267561401     2.274E-13 8.695E-18 1.539E-18
 ETOT  117  -596.81267561401    -6.821E-13 5.001E-18 1.374E-18
 ETOT  118  -596.81267561401     6.821E-13 5.119E-18 1.672E-18
 ETOT  119  -596.81267561401    -6.821E-13 2.945E-18 1.744E-18
 ETOT  120  -596.81267561401     3.411E-13 3.014E-18 2.093E-18
 ETOT  121  -596.81267561401     1.137E-13 1.734E-18 1.663E-18
 ETOT  122  -596.81267561401     1.137E-13 1.774E-18 1.501E-18
 ETOT  123  -596.81267561401     1.137E-13 1.021E-18 1.669E-18
 ETOT  124  -596.81267561401    -7.958E-13 1.045E-18 1.886E-18
 ETOT  125  -596.81267561401    -1.137E-13 6.016E-19 1.888E-18
 ETOT  126  -596.81267561401     1.137E-13 6.151E-19 1.751E-18
 ETOT  127  -596.81267561401     2.274E-13 3.543E-19 1.554E-18
 ETOT  128  -596.81267561401    -5.684E-13 3.622E-19 1.536E-18
 ETOT  129  -596.81267561401    -1.137E-13 2.087E-19 1.642E-18
 ETOT  130  -596.81267561401     1.137E-13 2.133E-19 1.888E-18
 ETOT  131  -596.81267561401     7.958E-13 1.229E-19 1.413E-18
 ETOT  132  -596.81267561401    -2.274E-13 1.256E-19 1.715E-18
 ETOT  133  -596.81267561401    -4.547E-13 7.238E-20 2.219E-18
 ETOT  134  -596.81267561401    -1.137E-13 7.394E-20 1.880E-18
 ETOT  135  -596.81267561401     6.821E-13 4.263E-20 1.457E-18
 ETOT  136  -596.81267561401     2.274E-13 4.354E-20 1.715E-18
 ETOT  137  -596.81267561401    -3.411E-13 2.511E-20 1.913E-18
 ETOT  138  -596.81267561401     1.137E-13 2.564E-20 1.926E-18
 ETOT  139  -596.81267561401     0.000E+00 1.479E-20 1.953E-18
 ETOT  140  -596.81267561401    -9.095E-13 1.510E-20 1.341E-18
 ETOT  141  -596.81267561401     6.821E-13 9.723E-21 1.371E-18

 At SCF step  141   max residual=  9.72E-21 < tolwfr=  1.00E-20 =>converged.

 Cartesian components of stress tensor (hartree/bohr^3)
  sigma(1 1)=  1.02050307E-02  sigma(3 2)=  0.00000000E+00
  sigma(2 2)=  1.02050307E-02  sigma(3 1)=  0.00000000E+00
  sigma(3 3)=  1.01107545E-02  sigma(2 1)=  0.00000000E+00


--- !ResultsGS
iteration_state: {dtset: 1, }
comment   : Summary of ground state results
lattice_vectors:
- [  7.7624317,   0.0000000,   0.0000000, ]
- [  0.0000000,   7.7624317,   0.0000000, ]
- [  0.0000000,   0.0000000,  27.9687570, ]
lattice_lengths: [   7.76243,    7.76243,   27.96876, ]
lattice_angles: [ 90.000,  90.000,  90.000, ] # degrees, (23, 13, 12)
lattice_volume:   1.6852671E+03
convergence: {deltae:  6.821E-13, res2:  1.371E-18, residm:  9.723E-21, diffor: null, }
etotal    :  -5.96812676E+02
entropy   :   0.00000000E+00
fermie    :   6.91454399E-02
cartesian_stress_tensor: # hartree/bohr^3
- [  1.02050307E-02,   0.00000000E+00,   0.00000000E+00, ]
- [  0.00000000E+00,   1.02050307E-02,   0.00000000E+00, ]
- [  0.00000000E+00,   0.00000000E+00,   1.01107545E-02, ]
pressure_GPa:  -2.9932E+02
xred      :
- [  5.0000E-01,   0.0000E+00,   3.1529E-01, Sn]
- [  0.0000E+00,   5.0000E-01,   5.0107E-01, Sn]
- [  5.0000E-01,   0.0000E+00,   6.8256E-01, Sn]
- [  0.0000E+00,   5.0000E-01,   3.1744E-01, Se]
- [  5.0000E-01,   0.0000E+00,   4.9893E-01, Se]
- [  0.0000E+00,   5.0000E-01,   6.8471E-01, Se]
cartesian_forces: # hartree/bohr
- [ -0.00000000E+00,  -0.00000000E+00,  -1.48300785E-02, ]
- [ -0.00000000E+00,  -0.00000000E+00,  -1.41152120E-03, ]
- [ -0.00000000E+00,  -0.00000000E+00,   1.59805719E-02, ]
- [ -0.00000000E+00,  -0.00000000E+00,  -1.67717703E-02, ]
- [ -0.00000000E+00,  -0.00000000E+00,   1.62786921E-03, ]
- [ -0.00000000E+00,  -0.00000000E+00,   1.54049289E-02, ]
force_length_stats: {min:   1.41152120E-03, max:   1.67717703E-02, mean:   1.10044567E-02, }
...

 Integrated electronic density in atomic spheres:
 ------------------------------------------------
 Atom  Sphere_radius  Integrated_density
    1        2.00000         10.57625399
    2        2.00000         10.60286165
    3        2.00000         10.56509480
    4        2.00000         13.31219577
    5        2.00000         13.33888607
    6        2.00000         13.32670535
================================================================================

 ----iterations are completed or convergence reached----

 Mean square residual over all n,k,spin=   31.770E-22; max=  97.230E-22
 reduced coordinates (array xred) for    6 atoms
       0.500000000000      0.000000000000      0.315293000000
       0.000000000000      0.500000000000      0.501073000000
       0.500000000000      0.000000000000      0.682561000000
       0.000000000000      0.500000000000      0.317439000000
       0.500000000000      0.000000000000      0.498927000000
       0.000000000000      0.500000000000      0.684707000000
 rms dE/dt=  2.0832E-01; max dE/dt=  4.6824E-01; dE/dt below (all hartree)
    1       0.000000000000      0.000000000000      0.413934065098
    2       0.000000000000      0.000000000000      0.038633697561
    3       0.000000000000      0.000000000000     -0.447801527791
    4       0.000000000000      0.000000000000      0.468240771539
    5       0.000000000000      0.000000000000     -0.046374274077
    6       0.000000000000      0.000000000000     -0.431701506996

 cartesian coordinates (angstrom) at end:
    1      2.05385096425820     0.00000000000000     4.66647157948951
    2      0.00000000000000     2.05385096425820     7.41609523125964
    3      2.05385096425820     0.00000000000000    10.10219544286723
    4      0.00000000000000     2.05385096425820     4.69823329957078
    5      2.05385096425820     0.00000000000000     7.38433351117837
    6      0.00000000000000     2.05385096425820    10.13395716294850

 cartesian forces (hartree/bohr) at end:
    1     -0.00000000000000    -0.00000000000000    -0.01483007847947
    2     -0.00000000000000    -0.00000000000000    -0.00141152119765
    3     -0.00000000000000    -0.00000000000000     0.01598057190931
    4     -0.00000000000000    -0.00000000000000    -0.01677177029275
    5     -0.00000000000000    -0.00000000000000     0.00162786920935
    6     -0.00000000000000    -0.00000000000000     0.01540492885122
 frms,max,avg= 7.4481779E-03 1.6771770E-02   0.000E+00  0.000E+00  3.020E-05 h/b

 cartesian forces (eV/Angstrom) at end:
    1     -0.00000000000000    -0.00000000000000    -0.76259323271718
    2     -0.00000000000000    -0.00000000000000    -0.07258333222292
    3     -0.00000000000000    -0.00000000000000     0.82175397856823
    4     -0.00000000000000    -0.00000000000000    -0.86243903183940
    5     -0.00000000000000    -0.00000000000000     0.08370839335192
    6     -0.00000000000000    -0.00000000000000     0.79215322485935
 frms,max,avg= 3.8300067E-01 8.6243903E-01   0.000E+00  0.000E+00  1.553E-03 e/A
 length scales=  7.762431680422  7.762431680422  7.762431680422 bohr
              =  4.107701928516  4.107701928516  4.107701928516 angstroms
 prteigrs : about to open file Cs2TiI6o_DS1_EIG
 Fermi (or HOMO) energy (hartree) =   0.06915   Average Vxc (hartree)=  -0.25606
 Eigenvalues (hartree) for nkpt=  10  k points:
 kpt#   1, nband= 46, wtk=  0.06250, kpt=  0.0625  0.0625  0.2500 (reduced coord)
  -1.74844   -1.74717   -1.74654   -1.74568   -1.74526   -1.72322   -1.72250   -1.72241
  -1.72179   -1.72102   -1.71957   -1.71831   -1.71772   -1.71739   -1.71613   -0.73830
  -0.73797   -0.73618   -0.73607   -0.73591   -0.73579   -0.73579   -0.73566   -0.73562
  -0.73548   -0.72997   -0.72991   -0.72951   -0.72791   -0.72780   -0.48325   -0.44309
  -0.42286   -0.19156   -0.18609   -0.13006   -0.11483   -0.09409   -0.07659   -0.05592
  -0.04084   -0.03148   -0.01770    0.00074    0.00970    0.14295
 prteigrs : prtvol=0 or 1, do not print more k-points.


--- !EnergyTerms
iteration_state     : {dtset: 1, }
comment             : Components of total free energy in Hartree
kinetic             :  3.64642847168436E+02
hartree             :  5.71531385454512E+02
xc                  : -1.37537805466485E+02
Ewald energy        :  9.30124071863241E+01
psp_core            :  9.96280920380698E+00
local_psp           : -1.28324556031795E+03
non_local_psp       : -2.15110729097962E+02
VdWaals_dft_d       : -6.80297446972531E-02
total_energy        : -5.96812675614010E+02
total_energy_eV     : -1.62400988086465E+04
band_energy         : -7.84329104883359E+01
...


 Cartesian components of stress tensor (hartree/bohr^3)
  sigma(1 1)=  1.02050307E-02  sigma(3 2)=  0.00000000E+00
  sigma(2 2)=  1.02050307E-02  sigma(3 1)=  0.00000000E+00
  sigma(3 3)=  1.01107545E-02  sigma(2 1)=  0.00000000E+00

-Cartesian components of stress tensor (GPa)         [Pressure= -2.9932E+02 GPa]
- sigma(1 1)=  3.00242318E+02  sigma(3 2)=  0.00000000E+00
- sigma(2 2)=  3.00242318E+02  sigma(3 1)=  0.00000000E+00
- sigma(3 3)=  2.97468617E+02  sigma(2 1)=  0.00000000E+00

================================================================================
== DATASET  2 ==================================================================
-   mpi_nproc: 6, omp_nthreads: -1 (-1 if OMP is not activated)


--- !DatasetInfo
iteration_state: {dtset: 2, }
dimensions: {natom: 6, nkpt: 10, mband: 150, nsppol: 1, nspinor: 1, nspden: 1, mpw: 8614, }
cutoff_energies: {ecut:  22.5, pawecutdg:  -1.0, }
electrons: {nelect:   9.00000000E+01, charge:   0.00000000E+00, occopt:   1.00000000E+00, tsmear:   1.00000000E-02, }
meta: {optdriver: 0, ionmov: 0, optcell: 0, iscf: -2, paral_kgb: 0, }
...

 mkfilename : getwfk/=0, take file _WFK from output of DATASET   1.

 mkfilename : getden/=0, take file _DEN from output of DATASET   1.

 Exchange-correlation functional for the present dataset will be:
  GGA: Perdew-Burke-Ernzerhof functional - ixc=11
 Citation for XC functional:
  J.P.Perdew, K.Burke, M.Ernzerhof, PRL 77, 3865 (1996)

 Real(R)+Recip(G) space primitive vectors, cartesian coordinates (Bohr,Bohr^-1):
 R(1)=  7.7624317  0.0000000  0.0000000  G(1)=  0.1288256  0.0000000  0.0000000
 R(2)=  0.0000000  7.7624317  0.0000000  G(2)=  0.0000000  0.1288256  0.0000000
 R(3)=  0.0000000  0.0000000 27.9687570  G(3)=  0.0000000  0.0000000  0.0357542
 Unit cell volume ucvol=  1.6852671E+03 bohr^3
 Angles (23,13,12)=  9.00000000E+01  9.00000000E+01  9.00000000E+01 degrees

 getcut: wavevector=  0.0000  0.0000  0.0000  ngfft=  36  36 120
         ecut(hartree)=     22.500   => boxcut(ratio)=   2.00933
--------------------------------------------------------------------------------

-inwffil : will read wavefunctions from disk file Cs2TiI6o_DS1_WFK

================================================================================
 prteigrs : about to open file Cs2TiI6o_DS2_EIG
 Non-SCF case, kpt    1 (  0.06250  0.06250  0.25000), residuals and eigenvalues=
  1.07E-21  1.06E-21  1.09E-21  1.05E-21  1.11E-21  1.11E-21  2.01E-21  1.05E-21
  7.35E-22  6.95E-22  1.87E-21  2.12E-21  1.77E-21  1.34E-21  1.37E-21  7.66E-22
  2.58E-21  7.44E-22  7.72E-22  4.75E-21  5.64E-21  2.25E-21  2.19E-21  4.00E-21
  3.26E-21  1.93E-21  2.19E-21  2.89E-21  2.66E-21  2.70E-21  2.06E-21  9.73E-22
  2.34E-21  1.67E-21  2.08E-21  2.66E-21  3.81E-21  2.79E-21  3.18E-21  4.08E-21
  3.27E-21  4.53E-21  5.97E-21  7.54E-21  4.60E-21  3.05E-21  3.73E-21  4.80E-21
  8.24E-21  3.23E-21  4.68E-21  4.31E-21  4.76E-21  8.22E-21  5.17E-21  6.77E-21
  2.86E-21  6.52E-21  6.00E-21  7.89E-21  6.83E-21  9.83E-21  8.24E-21  7.79E-21
  5.27E-21  1.87E-21  1.41E-21  8.97E-21  4.29E-21  5.76E-21  5.52E-21  6.29E-21
  1.92E-21  8.23E-21  8.34E-21  2.74E-21  6.77E-21  9.51E-21  6.78E-21  6.87E-21
  4.88E-21  5.20E-21  2.11E-21  7.85E-21  9.10E-21  6.82E-21  2.92E-21  2.77E-21
  8.82E-21  3.48E-21  8.26E-21  5.44E-21  5.98E-21  9.60E-21  9.91E-21  9.63E-21
  5.86E-21  4.97E-21  7.65E-21  6.48E-21  6.82E-21  7.29E-21  9.40E-21  3.59E-21
  9.56E-21  6.42E-21  8.47E-21  6.88E-21  3.27E-21  6.47E-21  3.09E-21  2.69E-21
  5.89E-21  4.63E-21  9.98E-21  7.18E-21  6.93E-21  1.73E-21  7.69E-21  9.78E-21
  9.24E-21  1.90E-21  2.66E-21  7.49E-21  3.52E-21  6.67E-21  2.74E-21  6.60E-21
  6.56E-21  9.38E-21  7.32E-21  3.90E-21  4.87E-21  9.97E-21  6.96E-21  7.79E-21
  5.06E-21  5.29E-21  8.22E-21  7.49E-21  8.63E-21  5.55E-21  5.98E-21  9.99E-21
  6.54E-21  9.43E-21  6.21E-21  8.04E-21  6.88E-14  7.11E-07
 -1.7484E+00 -1.7472E+00 -1.7465E+00 -1.7457E+00 -1.7453E+00 -1.7232E+00
 -1.7225E+00 -1.7224E+00 -1.7218E+00 -1.7210E+00 -1.7196E+00 -1.7183E+00
 -1.7177E+00 -1.7174E+00 -1.7161E+00 -7.3830E-01 -7.3797E-01 -7.3618E-01
 -7.3607E-01 -7.3591E-01 -7.3579E-01 -7.3579E-01 -7.3566E-01 -7.3562E-01
 -7.3548E-01 -7.2997E-01 -7.2991E-01 -7.2951E-01 -7.2791E-01 -7.2780E-01
 -4.8325E-01 -4.4309E-01 -4.2286E-01 -1.9156E-01 -1.8609E-01 -1.3006E-01
 -1.1483E-01 -9.4087E-02 -7.6586E-02 -5.5918E-02 -4.0842E-02 -3.1476E-02
 -1.7696E-02  7.3524E-04  9.7015E-03  1.4295E-01  1.5008E-01  1.7891E-01
  2.0452E-01  2.1146E-01  2.1675E-01  2.2174E-01  2.2704E-01  2.5703E-01
  2.5735E-01  2.6534E-01  2.7946E-01  2.8153E-01  2.8799E-01  3.1225E-01
  3.3014E-01  3.6219E-01  3.9466E-01  3.9947E-01  4.0873E-01  4.1904E-01
  4.4230E-01  4.4410E-01  4.6340E-01  4.7165E-01  4.7541E-01  4.8480E-01
  4.9351E-01  4.9468E-01  5.0645E-01  5.1580E-01  5.2560E-01  5.3403E-01
  5.5902E-01  5.6008E-01  5.8043E-01  5.9064E-01  5.9124E-01  5.9804E-01
  6.0956E-01  6.2065E-01  6.2820E-01  6.3533E-01  6.5532E-01  6.7939E-01
  6.8289E-01  6.9245E-01  6.9469E-01  7.0431E-01  7.1829E-01  7.2961E-01
  7.4180E-01  7.5497E-01  7.7618E-01  7.7757E-01  7.8560E-01  7.9348E-01
  7.9748E-01  8.1251E-01  8.3005E-01  8.4380E-01  8.4938E-01  8.5815E-01
  8.7469E-01  8.7590E-01  8.7848E-01  8.8033E-01  8.8661E-01  8.8853E-01
  9.0518E-01  9.1375E-01  9.2482E-01  9.2569E-01  9.2907E-01  9.3344E-01
  9.4517E-01  9.5247E-01  9.5515E-01  9.6425E-01  9.8481E-01  9.9943E-01
  1.0068E+00  1.0133E+00  1.0207E+00  1.0274E+00  1.0311E+00  1.0339E+00
  1.0350E+00  1.0572E+00  1.0720E+00  1.0912E+00  1.0927E+00  1.1013E+00
  1.1108E+00  1.1219E+00  1.1304E+00  1.1431E+00  1.1437E+00  1.1482E+00
  1.1578E+00  1.1592E+00  1.1694E+00  1.1770E+00  1.1898E+00  1.2008E+00
  prteigrs : nnsclo,ikpt=  200    1 max resid (incl. the buffer)=  7.10743E-07
 prteigrs : prtvol=0 or 1, do not print more k-points.

  prteigrs : nnsclo,ikpt=  200    2 max resid (incl. the buffer)=  3.78104E-10
  prteigrs : nnsclo,ikpt=  200    3 max resid (incl. the buffer)=  3.95041E-10
  prteigrs : nnsclo,ikpt=  200    4 max resid (incl. the buffer)=  1.97115E-07
  prteigrs : nnsclo,ikpt=  200    5 max resid (incl. the buffer)=  2.04115E-11
  prteigrs : nnsclo,ikpt=  200    6 max resid (incl. the buffer)=  2.20424E-07
  prteigrs : nnsclo,ikpt=  200    7 max resid (incl. the buffer)=  1.48088E-13
  prteigrs : nnsclo,ikpt=  200    8 max resid (incl. the buffer)=  2.12420E-10
  prteigrs : nnsclo,ikpt=  200    9 max resid (incl. the buffer)=  2.05960E-08
  prteigrs : nnsclo,ikpt=  200   10 max resid (incl. the buffer)=  1.82092E-16


--- !ResultsGS
iteration_state: {dtset: 2, }
comment   : Summary of ground state results
lattice_vectors:
- [  7.7624317,   0.0000000,   0.0000000, ]
- [  0.0000000,   7.7624317,   0.0000000, ]
- [  0.0000000,   0.0000000,  27.9687570, ]
lattice_lengths: [   7.76243,    7.76243,   27.96876, ]
lattice_angles: [ 90.000,  90.000,  90.000, ] # degrees, (23, 13, 12)
lattice_volume:   1.6852671E+03
convergence: {deltae:  0.000E+00, res2:  0.000E+00, residm:  9.985E-21, diffor:  0.000E+00, }
etotal    :  -5.96812676E+02
entropy   :   0.00000000E+00
fermie    :   6.91454399E-02
cartesian_stress_tensor: null
pressure_GPa: null
xred      :
- [  5.0000E-01,   0.0000E+00,   3.1529E-01, Sn]
- [  0.0000E+00,   5.0000E-01,   5.0107E-01, Sn]
- [  5.0000E-01,   0.0000E+00,   6.8256E-01, Sn]
- [  0.0000E+00,   5.0000E-01,   3.1744E-01, Se]
- [  5.0000E-01,   0.0000E+00,   4.9893E-01, Se]
- [  0.0000E+00,   5.0000E-01,   6.8471E-01, Se]
cartesian_forces: null
force_length_stats: {min: null, max: null, mean: null, }
...

 Integrated electronic density in atomic spheres:
 ------------------------------------------------
 Atom  Sphere_radius  Integrated_density
    1        2.00000         10.57625399
    2        2.00000         10.60286165
    3        2.00000         10.56509480
    4        2.00000         13.31219577
    5        2.00000         13.33888607
    6        2.00000         13.32670535
================================================================================

 ----iterations are completed or convergence reached----

 Mean square residual over all n,k,spin=   49.045E-22; max=  99.852E-22
 reduced coordinates (array xred) for    6 atoms
       0.500000000000      0.000000000000      0.315293000000
       0.000000000000      0.500000000000      0.501073000000
       0.500000000000      0.000000000000      0.682561000000
       0.000000000000      0.500000000000      0.317439000000
       0.500000000000      0.000000000000      0.498927000000
       0.000000000000      0.500000000000      0.684707000000

 cartesian coordinates (angstrom) at end:
    1      2.05385096425820     0.00000000000000     4.66647157948951
    2      0.00000000000000     2.05385096425820     7.41609523125964
    3      2.05385096425820     0.00000000000000    10.10219544286723
    4      0.00000000000000     2.05385096425820     4.69823329957078
    5      2.05385096425820     0.00000000000000     7.38433351117837
    6      0.00000000000000     2.05385096425820    10.13395716294850
 length scales=  7.762431680422  7.762431680422  7.762431680422 bohr
              =  4.107701928516  4.107701928516  4.107701928516 angstroms
 prteigrs : about to open file Cs2TiI6o_DS2_EIG
 Eigenvalues (hartree) for nkpt=  10  k points:
 kpt#   1, nband=150, wtk=  0.06250, kpt=  0.0625  0.0625  0.2500 (reduced coord)
  -1.74844   -1.74717   -1.74654   -1.74568   -1.74526   -1.72322   -1.72250   -1.72241
  -1.72179   -1.72102   -1.71957   -1.71831   -1.71772   -1.71739   -1.71613   -0.73830
  -0.73797   -0.73618   -0.73607   -0.73591   -0.73579   -0.73579   -0.73566   -0.73562
  -0.73548   -0.72997   -0.72991   -0.72951   -0.72791   -0.72780   -0.48325   -0.44309
  -0.42286   -0.19156   -0.18609   -0.13006   -0.11483   -0.09409   -0.07659   -0.05592
  -0.04084   -0.03148   -0.01770    0.00074    0.00970    0.14295    0.15008    0.17891
   0.20452    0.21146    0.21675    0.22174    0.22704    0.25703    0.25735    0.26534
   0.27946    0.28153    0.28799    0.31225    0.33014    0.36219    0.39466    0.39947
   0.40873    0.41904    0.44230    0.44410    0.46340    0.47165    0.47541    0.48480
   0.49351    0.49468    0.50645    0.51580    0.52560    0.53403    0.55902    0.56008
   0.58043    0.59064    0.59124    0.59804    0.60956    0.62065    0.62820    0.63533
   0.65532    0.67939    0.68289    0.69245    0.69469    0.70431    0.71829    0.72961
   0.74180    0.75497    0.77618    0.77757    0.78560    0.79348    0.79748    0.81251
   0.83005    0.84380    0.84938    0.85815    0.87469    0.87590    0.87848    0.88033
   0.88661    0.88853    0.90518    0.91375    0.92482    0.92569    0.92907    0.93344
   0.94517    0.95247    0.95515    0.96425    0.98481    0.99943    1.00683    1.01331
   1.02069    1.02744    1.03114    1.03395    1.03498    1.05718    1.07201    1.09121
   1.09273    1.10133    1.11076    1.12189    1.13044    1.14307    1.14366    1.14819
   1.15784    1.15918    1.16935    1.17698    1.18980    1.20085
 prteigrs : prtvol=0 or 1, do not print more k-points.


================================================================================
== DATASET  3 ==================================================================
-   mpi_nproc: 6, omp_nthreads: -1 (-1 if OMP is not activated)


--- !DatasetInfo
iteration_state: {dtset: 3, }
dimensions: {natom: 6, nkpt: 64, mband: 150, nsppol: 1, nspinor: 1, nspden: 1, mpw: 8614, }
cutoff_energies: {ecut:  22.5, pawecutdg:  -1.0, }
electrons: {nelect:   9.00000000E+01, charge:   0.00000000E+00, occopt:   1.00000000E+00, tsmear:   1.00000000E-02, }
meta: {optdriver: 0, ionmov: 0, optcell: 0, iscf: -2, paral_kgb: 0, }
...

 mkfilename : getwfk/=0, take file _WFK from output of DATASET   2.

 mkfilename : getden/=0, take file _DEN from output of DATASET   1.

 Exchange-correlation functional for the present dataset will be:
  GGA: Perdew-Burke-Ernzerhof functional - ixc=11
 Citation for XC functional:
  J.P.Perdew, K.Burke, M.Ernzerhof, PRL 77, 3865 (1996)

 Real(R)+Recip(G) space primitive vectors, cartesian coordinates (Bohr,Bohr^-1):
 R(1)=  7.7624317  0.0000000  0.0000000  G(1)=  0.1288256  0.0000000  0.0000000
 R(2)=  0.0000000  7.7624317  0.0000000  G(2)=  0.0000000  0.1288256  0.0000000
 R(3)=  0.0000000  0.0000000 27.9687570  G(3)=  0.0000000  0.0000000  0.0357542
 Unit cell volume ucvol=  1.6852671E+03 bohr^3
 Angles (23,13,12)=  9.00000000E+01  9.00000000E+01  9.00000000E+01 degrees

 getcut: wavevector=  0.0000  0.0000  0.0000  ngfft=  36  36 120
         ecut(hartree)=     22.500   => boxcut(ratio)=   2.00933
--------------------------------------------------------------------------------

-inwffil : will read wavefunctions from disk file Cs2TiI6o_DS2_WFK

================================================================================
 prteigrs : about to open file Cs2TiI6o_DS3_EIG
 Non-SCF case, kpt    1 (  0.06250  0.06250  0.25000), residuals and eigenvalues=
  1.07E-21  1.06E-21  1.09E-21  1.05E-21  1.11E-21  1.11E-21  2.01E-21  1.05E-21
  7.35E-22  6.95E-22  1.87E-21  2.12E-21  1.77E-21  1.34E-21  1.37E-21  7.66E-22
  2.58E-21  7.44E-22  7.72E-22  4.75E-21  5.64E-21  2.25E-21  2.19E-21  4.00E-21
  3.26E-21  1.93E-21  2.19E-21  2.89E-21  2.66E-21  2.70E-21  2.06E-21  9.73E-22
  2.34E-21  1.67E-21  2.08E-21  2.66E-21  3.81E-21  2.79E-21  3.18E-21  4.08E-21
  3.27E-21  4.53E-21  5.97E-21  7.54E-21  4.60E-21  3.05E-21  3.73E-21  4.80E-21
  8.24E-21  3.23E-21  4.68E-21  4.31E-21  4.76E-21  8.22E-21  5.17E-21  6.77E-21
  2.86E-21  6.52E-21  6.00E-21  7.89E-21  6.83E-21  9.83E-21  8.24E-21  7.79E-21
  5.27E-21  1.87E-21  1.41E-21  8.97E-21  4.29E-21  5.76E-21  5.52E-21  6.29E-21
  1.92E-21  8.23E-21  8.34E-21  2.74E-21  6.77E-21  9.51E-21  6.78E-21  6.87E-21
  4.88E-21  5.20E-21  2.11E-21  7.85E-21  9.10E-21  6.82E-21  2.92E-21  2.77E-21
  8.82E-21  3.48E-21  8.26E-21  5.44E-21  5.98E-21  9.60E-21  9.91E-21  9.63E-21
  5.86E-21  4.97E-21  7.65E-21  6.48E-21  6.82E-21  7.29E-21  9.40E-21  3.59E-21
  9.56E-21  6.42E-21  8.47E-21  6.88E-21  3.27E-21  6.47E-21  3.09E-21  2.69E-21
  5.89E-21  4.63E-21  9.98E-21  7.18E-21  6.93E-21  1.73E-21  7.69E-21  9.78E-21
  9.24E-21  1.90E-21  2.66E-21  7.49E-21  3.52E-21  6.67E-21  2.74E-21  6.60E-21
  6.56E-21  9.38E-21  7.32E-21  3.90E-21  4.87E-21  9.97E-21  6.96E-21  7.79E-21
  5.06E-21  5.29E-21  8.22E-21  7.49E-21  8.63E-21  5.55E-21  5.98E-21  9.99E-21
  6.54E-21  9.43E-21  6.21E-21  8.04E-21  5.62E-14  2.26E-07
 -1.7484E+00 -1.7472E+00 -1.7465E+00 -1.7457E+00 -1.7453E+00 -1.7232E+00
 -1.7225E+00 -1.7224E+00 -1.7218E+00 -1.7210E+00 -1.7196E+00 -1.7183E+00
 -1.7177E+00 -1.7174E+00 -1.7161E+00 -7.3830E-01 -7.3797E-01 -7.3618E-01
 -7.3607E-01 -7.3591E-01 -7.3579E-01 -7.3579E-01 -7.3566E-01 -7.3562E-01
 -7.3548E-01 -7.2997E-01 -7.2991E-01 -7.2951E-01 -7.2791E-01 -7.2780E-01
 -4.8325E-01 -4.4309E-01 -4.2286E-01 -1.9156E-01 -1.8609E-01 -1.3006E-01
 -1.1483E-01 -9.4087E-02 -7.6586E-02 -5.5918E-02 -4.0842E-02 -3.1476E-02
 -1.7696E-02  7.3524E-04  9.7015E-03  1.4295E-01  1.5008E-01  1.7891E-01
  2.0452E-01  2.1146E-01  2.1675E-01  2.2174E-01  2.2704E-01  2.5703E-01
  2.5735E-01  2.6534E-01  2.7946E-01  2.8153E-01  2.8799E-01  3.1225E-01
  3.3014E-01  3.6219E-01  3.9466E-01  3.9947E-01  4.0873E-01  4.1904E-01
  4.4230E-01  4.4410E-01  4.6340E-01  4.7165E-01  4.7541E-01  4.8480E-01
  4.9351E-01  4.9468E-01  5.0645E-01  5.1580E-01  5.2560E-01  5.3403E-01
  5.5902E-01  5.6008E-01  5.8043E-01  5.9064E-01  5.9124E-01  5.9804E-01
  6.0956E-01  6.2065E-01  6.2820E-01  6.3533E-01  6.5532E-01  6.7939E-01
  6.8289E-01  6.9245E-01  6.9469E-01  7.0431E-01  7.1829E-01  7.2961E-01
  7.4180E-01  7.5497E-01  7.7618E-01  7.7757E-01  7.8560E-01  7.9348E-01
  7.9748E-01  8.1251E-01  8.3005E-01  8.4380E-01  8.4938E-01  8.5815E-01
  8.7469E-01  8.7590E-01  8.7848E-01  8.8033E-01  8.8661E-01  8.8853E-01
  9.0518E-01  9.1375E-01  9.2482E-01  9.2569E-01  9.2907E-01  9.3344E-01
  9.4517E-01  9.5247E-01  9.5515E-01  9.6425E-01  9.8481E-01  9.9943E-01
  1.0068E+00  1.0133E+00  1.0207E+00  1.0274E+00  1.0311E+00  1.0339E+00
  1.0350E+00  1.0572E+00  1.0720E+00  1.0912E+00  1.0927E+00  1.1013E+00
  1.1108E+00  1.1219E+00  1.1304E+00  1.1431E+00  1.1437E+00  1.1482E+00
  1.1578E+00  1.1592E+00  1.1694E+00  1.1770E+00  1.1898E+00  1.2008E+00
  prteigrs : nnsclo,ikpt=  200    1 max resid (incl. the buffer)=  2.25842E-07
 prteigrs : prtvol=0 or 1, do not print more k-points.

  prteigrs : nnsclo,ikpt=  200    2 max resid (incl. the buffer)=  3.08042E-10
  prteigrs : nnsclo,ikpt=  200    3 max resid (incl. the buffer)=  1.61120E-10
  prteigrs : nnsclo,ikpt=  200    4 max resid (incl. the buffer)=  2.78145E-07
  prteigrs : nnsclo,ikpt=  200    5 max resid (incl. the buffer)=  2.78145E-07
  prteigrs : nnsclo,ikpt=  200    6 max resid (incl. the buffer)=  1.61120E-10
  prteigrs : nnsclo,ikpt=  200    7 max resid (incl. the buffer)=  3.08042E-10
  prteigrs : nnsclo,ikpt=  200    8 max resid (incl. the buffer)=  2.25842E-07
  prteigrs : nnsclo,ikpt=  200    9 max resid (incl. the buffer)=  3.08042E-10
  prteigrs : nnsclo,ikpt=  200   10 max resid (incl. the buffer)=  1.48749E-11
  prteigrs : nnsclo,ikpt=  200   11 max resid (incl. the buffer)=  3.12331E-07
  prteigrs : nnsclo,ikpt=  200   12 max resid (incl. the buffer)=  1.04916E-13
  prteigrs : nnsclo,ikpt=  200   13 max resid (incl. the buffer)=  1.04916E-13
  prteigrs : nnsclo,ikpt=  200   14 max resid (incl. the buffer)=  3.12331E-07
  prteigrs : nnsclo,ikpt=  200   15 max resid (incl. the buffer)=  1.48749E-11
  prteigrs : nnsclo,ikpt=  200   16 max resid (incl. the buffer)=  3.08042E-10
  prteigrs : nnsclo,ikpt=  200   17 max resid (incl. the buffer)=  1.61120E-10
  prteigrs : nnsclo,ikpt=  200   18 max resid (incl. the buffer)=  3.12331E-07
  prteigrs : nnsclo,ikpt=  200   19 max resid (incl. the buffer)=  9.83480E-11
  prteigrs : nnsclo,ikpt=  200   20 max resid (incl. the buffer)=  3.90560E-08
  prteigrs : nnsclo,ikpt=  200   21 max resid (incl. the buffer)=  3.90560E-08
  prteigrs : nnsclo,ikpt=  200   22 max resid (incl. the buffer)=  9.83480E-11
  prteigrs : nnsclo,ikpt=  200   23 max resid (incl. the buffer)=  3.12331E-07
  prteigrs : nnsclo,ikpt=  200   24 max resid (incl. the buffer)=  1.61120E-10
  prteigrs : nnsclo,ikpt=  200   25 max resid (incl. the buffer)=  2.78145E-07
  prteigrs : nnsclo,ikpt=  200   26 max resid (incl. the buffer)=  1.04917E-13
  prteigrs : nnsclo,ikpt=  200   27 max resid (incl. the buffer)=  3.90560E-08
  prteigrs : nnsclo,ikpt=  200   28 max resid (incl. the buffer)=  1.48418E-16
  prteigrs : nnsclo,ikpt=  200   29 max resid (incl. the buffer)=  1.48417E-16
  prteigrs : nnsclo,ikpt=  200   30 max resid (incl. the buffer)=  3.90560E-08
  prteigrs : nnsclo,ikpt=  200   31 max resid (incl. the buffer)=  1.04917E-13
  prteigrs : nnsclo,ikpt=  200   32 max resid (incl. the buffer)=  2.78145E-07
  prteigrs : nnsclo,ikpt=  200   33 max resid (incl. the buffer)=  2.78145E-07
  prteigrs : nnsclo,ikpt=  200   34 max resid (incl. the buffer)=  1.04917E-13
  prteigrs : nnsclo,ikpt=  200   35 max resid (incl. the buffer)=  3.90560E-08
  prteigrs : nnsclo,ikpt=  200   36 max resid (incl. the buffer)=  1.48417E-16
  prteigrs : nnsclo,ikpt=  200   37 max resid (incl. the buffer)=  1.48418E-16
  prteigrs : nnsclo,ikpt=  200   38 max resid (incl. the buffer)=  3.90560E-08
  prteigrs : nnsclo,ikpt=  200   39 max resid (incl. the buffer)=  1.04917E-13
  prteigrs : nnsclo,ikpt=  200   40 max resid (incl. the buffer)=  2.78145E-07
  prteigrs : nnsclo,ikpt=  200   41 max resid (incl. the buffer)=  1.61120E-10
  prteigrs : nnsclo,ikpt=  200   42 max resid (incl. the buffer)=  3.12331E-07
  prteigrs : nnsclo,ikpt=  200   43 max resid (incl. the buffer)=  9.83480E-11
  prteigrs : nnsclo,ikpt=  200   44 max resid (incl. the buffer)=  3.90560E-08
  prteigrs : nnsclo,ikpt=  200   45 max resid (incl. the buffer)=  3.90560E-08
  prteigrs : nnsclo,ikpt=  200   46 max resid (incl. the buffer)=  9.83480E-11
  prteigrs : nnsclo,ikpt=  200   47 max resid (incl. the buffer)=  3.12331E-07
  prteigrs : nnsclo,ikpt=  200   48 max resid (incl. the buffer)=  1.61120E-10
  prteigrs : nnsclo,ikpt=  200   49 max resid (incl. the buffer)=  3.08042E-10
  prteigrs : nnsclo,ikpt=  200   50 max resid (incl. the buffer)=  1.48749E-11
[...]
             nkpt4         64
             nkpt5         64
             nkpt6         64
            nline1          4
            nline2          4
            nline3          4
            nline4          0
            nline5          0
            nline6          0
             nqpt1          0
             nqpt2          0
             nqpt3          0
             nqpt4          1
             nqpt5          1
             nqpt6          1
            nstep1        400
            nstep2        200
            nstep3        200
            nstep4          1
            nstep5          1
            nstep6          1
             nsym           8
           ntypat           2
              occ1     2.000000  2.000000  2.000000  2.000000  2.000000  2.000000
                       2.000000  2.000000  2.000000  2.000000  2.000000  2.000000
                       2.000000  2.000000  2.000000  2.000000  2.000000  2.000000
                       2.000000  2.000000  2.000000  2.000000  2.000000  2.000000
                       2.000000  2.000000  2.000000  2.000000  2.000000  2.000000
                       2.000000  2.000000  2.000000  2.000000  2.000000  2.000000
                       2.000000  2.000000  2.000000  2.000000  2.000000  2.000000
                       2.000000  2.000000  2.000000  0.000000
              occ4     2.000000  2.000000  2.000000  2.000000  2.000000  2.000000
                       2.000000  2.000000  2.000000  2.000000  2.000000  2.000000
                       2.000000  2.000000  2.000000  2.000000  2.000000  2.000000
                       2.000000  2.000000  2.000000  2.000000  2.000000  2.000000
                       2.000000  2.000000  2.000000  2.000000  2.000000  2.000000
                       2.000000  2.000000  2.000000  2.000000  2.000000  2.000000
                       2.000000  2.000000  2.000000  2.000000  2.000000  2.000000
                       2.000000  2.000000  2.000000  0.000000  0.000000  0.000000
                       0.000000  0.000000  0.000000  0.000000  0.000000  0.000000
                       0.000000  0.000000  0.000000  0.000000  0.000000  0.000000
                       0.000000  0.000000  0.000000  0.000000  0.000000  0.000000
                       0.000000  0.000000  0.000000  0.000000  0.000000  0.000000
                       0.000000  0.000000  0.000000  0.000000  0.000000  0.000000
                       0.000000  0.000000  0.000000  0.000000  0.000000  0.000000
                       0.000000  0.000000  0.000000  0.000000  0.000000  0.000000
                       0.000000  0.000000  0.000000  0.000000  0.000000  0.000000
                       0.000000  0.000000  0.000000  0.000000  0.000000  0.000000
                       0.000000  0.000000  0.000000  0.000000  0.000000  0.000000
                       0.000000  0.000000  0.000000  0.000000  0.000000  0.000000
                       0.000000  0.000000  0.000000  0.000000  0.000000  0.000000
                       0.000000  0.000000  0.000000  0.000000  0.000000  0.000000
                       0.000000  0.000000  0.000000  0.000000  0.000000  0.000000
                       0.000000  0.000000  0.000000  0.000000  0.000000  0.000000
                       0.000000  0.000000  0.000000  0.000000  0.000000  0.000000
                       0.000000  0.000000  0.000000  0.000000  0.000000  0.000000
              occ5     2.000000  2.000000  2.000000  2.000000  2.000000  2.000000
                       2.000000  2.000000  2.000000  2.000000  2.000000  2.000000
                       2.000000  2.000000  2.000000  2.000000  2.000000  2.000000
                       2.000000  2.000000  2.000000  2.000000  2.000000  2.000000
                       2.000000  2.000000  2.000000  2.000000  2.000000  2.000000
                       2.000000  2.000000  2.000000  2.000000  2.000000  2.000000
                       2.000000  2.000000  2.000000  2.000000  2.000000  2.000000
                       2.000000  2.000000  2.000000  0.000000  0.000000  0.000000
                       0.000000  0.000000  0.000000  0.000000  0.000000  0.000000
                       0.000000  0.000000  0.000000  0.000000  0.000000  0.000000
                       0.000000  0.000000  0.000000  0.000000  0.000000  0.000000
                       0.000000  0.000000  0.000000  0.000000  0.000000  0.000000
                       0.000000  0.000000  0.000000  0.000000  0.000000  0.000000
                       0.000000  0.000000  0.000000  0.000000  0.000000  0.000000
                       0.000000  0.000000  0.000000  0.000000  0.000000  0.000000
                       0.000000  0.000000  0.000000  0.000000  0.000000  0.000000
                       0.000000  0.000000  0.000000  0.000000  0.000000  0.000000
                       0.000000  0.000000  0.000000  0.000000  0.000000  0.000000
                       0.000000  0.000000  0.000000  0.000000  0.000000  0.000000
                       0.000000  0.000000  0.000000  0.000000  0.000000  0.000000
                       0.000000  0.000000  0.000000  0.000000  0.000000  0.000000
                       0.000000  0.000000  0.000000  0.000000  0.000000  0.000000
                       0.000000  0.000000  0.000000  0.000000  0.000000  0.000000
                       0.000000  0.000000  0.000000  0.000000  0.000000  0.000000
                       0.000000  0.000000  0.000000  0.000000  0.000000  0.000000
              occ6     2.000000  2.000000  2.000000  2.000000  2.000000  2.000000
                       2.000000  2.000000  2.000000  2.000000  2.000000  2.000000
                       2.000000  2.000000  2.000000  2.000000  2.000000  2.000000
                       2.000000  2.000000  2.000000  2.000000  2.000000  2.000000
                       2.000000  2.000000  2.000000  2.000000  2.000000  2.000000
                       2.000000  2.000000  2.000000  2.000000  2.000000  2.000000
                       2.000000  2.000000  2.000000  2.000000  2.000000  2.000000
                       2.000000  2.000000  2.000000  0.000000  0.000000  0.000000
                       0.000000  0.000000  0.000000  0.000000  0.000000  0.000000
                       0.000000  0.000000  0.000000  0.000000  0.000000  0.000000
                       0.000000  0.000000  0.000000  0.000000  0.000000  0.000000
                       0.000000  0.000000  0.000000  0.000000  0.000000  0.000000
                       0.000000  0.000000  0.000000  0.000000  0.000000  0.000000
                       0.000000  0.000000  0.000000  0.000000  0.000000  0.000000
                       0.000000  0.000000  0.000000  0.000000  0.000000  0.000000
                       0.000000  0.000000  0.000000  0.000000  0.000000  0.000000
                       0.000000  0.000000  0.000000  0.000000  0.000000  0.000000
                       0.000000  0.000000  0.000000  0.000000  0.000000  0.000000
                       0.000000  0.000000  0.000000  0.000000  0.000000  0.000000
                       0.000000  0.000000  0.000000  0.000000  0.000000  0.000000
                       0.000000  0.000000  0.000000  0.000000  0.000000  0.000000
                       0.000000  0.000000  0.000000  0.000000  0.000000  0.000000
                       0.000000  0.000000  0.000000  0.000000  0.000000  0.000000
                       0.000000  0.000000  0.000000  0.000000  0.000000  0.000000
                       0.000000  0.000000  0.000000  0.000000  0.000000  0.000000
        optdriver1          0
        optdriver2          0
        optdriver3          0
        optdriver4          1
        optdriver5          1
        optdriver6          1
            prtwf1          1
            prtwf2          1
            prtwf3          1
            prtwf4          3
            prtwf5          3
            prtwf6          3
            rfdir1          0       0       0
            rfdir2          0       0       0
            rfdir3          0       0       0
            rfdir4          1       0       0
            rfdir5          0       1       0
            rfdir6          0       0       1
           rfelfd1          0
           rfelfd2          0
           rfelfd3          0
           rfelfd4          2
           rfelfd5          2
           rfelfd6          2
            rprim      1.0000000000E+00  0.0000000000E+00  0.0000000000E+00
                       0.0000000000E+00  1.0000000000E+00  0.0000000000E+00
                       0.0000000000E+00  0.0000000000E+00  3.6030921912E+00
           shiftk      5.00000000E-01  5.00000000E-01  5.00000000E-01
          spgroup          99
           strten1     1.0205030672E-02  1.0205030672E-02  1.0110754479E-02
                       0.0000000000E+00  0.0000000000E+00  0.0000000000E+00
           symrel      1  0  0   0  1  0   0  0  1       1  0  0   0 -1  0   0  0  1
                      -1  0  0   0 -1  0   0  0  1      -1  0  0   0  1  0   0  0  1
                       0  1  0   1  0  0   0  0  1       0  1  0  -1  0  0   0  0  1
                       0 -1  0  -1  0  0   0  0  1       0 -1  0   1  0  0   0  0  1
            tnons      0.0000000  0.0000000  0.0000000     0.0000000  0.0000000  0.0000000
                      -0.0000000  0.0000000  0.0000000    -0.0000000  0.0000000  0.0000000
                       0.5000000  0.5000000  0.0000000     0.5000000  0.5000000  0.0000000
                       0.5000000  0.5000000  0.0000000     0.5000000  0.5000000  0.0000000
           tolwfr      1.00000000E-20
            typat      1  1  1  2  2  2
           vdw_xc           5
              wtk1       0.06250    0.12500    0.12500    0.12500    0.06250    0.12500
                         0.12500    0.06250    0.12500    0.06250
              wtk2       0.06250    0.12500    0.12500    0.12500    0.06250    0.12500
                         0.12500    0.06250    0.12500    0.06250
              wtk3       0.01563    0.01563    0.01563    0.01563    0.01563    0.01563
                         0.01563    0.01563    0.01563    0.01563    0.01563    0.01563
                         0.01563    0.01563    0.01563    0.01563    0.01563    0.01563
                         0.01563    0.01563    0.01563    0.01563    0.01563    0.01563
                         0.01563    0.01563    0.01563    0.01563    0.01563    0.01563
                         0.01563    0.01563    0.01563    0.01563    0.01563    0.01563
                         0.01563    0.01563    0.01563    0.01563    0.01563    0.01563
                         0.01563    0.01563    0.01563    0.01563    0.01563    0.01563
                         0.01563    0.01563
              wtk4       0.01563    0.01563    0.01563    0.01563    0.01563    0.01563
                         0.01563    0.01563    0.01563    0.01563    0.01563    0.01563
                         0.01563    0.01563    0.01563    0.01563    0.01563    0.01563
                         0.01563    0.01563    0.01563    0.01563    0.01563    0.01563
                         0.01563    0.01563    0.01563    0.01563    0.01563    0.01563
                         0.01563    0.01563    0.01563    0.01563    0.01563    0.01563
                         0.01563    0.01563    0.01563    0.01563    0.01563    0.01563
                         0.01563    0.01563    0.01563    0.01563    0.01563    0.01563
                         0.01563    0.01563
              wtk5       0.01563    0.01563    0.01563    0.01563    0.01563    0.01563
                         0.01563    0.01563    0.01563    0.01563    0.01563    0.01563
                         0.01563    0.01563    0.01563    0.01563    0.01563    0.01563
                         0.01563    0.01563    0.01563    0.01563    0.01563    0.01563
                         0.01563    0.01563    0.01563    0.01563    0.01563    0.01563
                         0.01563    0.01563    0.01563    0.01563    0.01563    0.01563
                         0.01563    0.01563    0.01563    0.01563    0.01563    0.01563
                         0.01563    0.01563    0.01563    0.01563    0.01563    0.01563
                         0.01563    0.01563
              wtk6       0.01563    0.01563    0.01563    0.01563    0.01563    0.01563
                         0.01563    0.01563    0.01563    0.01563    0.01563    0.01563
                         0.01563    0.01563    0.01563    0.01563    0.01563    0.01563
                         0.01563    0.01563    0.01563    0.01563    0.01563    0.01563
                         0.01563    0.01563    0.01563    0.01563    0.01563    0.01563
                         0.01563    0.01563    0.01563    0.01563    0.01563    0.01563
                         0.01563    0.01563    0.01563    0.01563    0.01563    0.01563
                         0.01563    0.01563    0.01563    0.01563    0.01563    0.01563
                         0.01563    0.01563
                       outvars : Printing only first  50 k-points.
           xangst      2.0538509643E+00  0.0000000000E+00  4.6664715795E+00
                       0.0000000000E+00  2.0538509643E+00  7.4160952313E+00
                       2.0538509643E+00  0.0000000000E+00  1.0102195443E+01
                       0.0000000000E+00  2.0538509643E+00  4.6982332996E+00
                       2.0538509643E+00  0.0000000000E+00  7.3843335112E+00
                       0.0000000000E+00  2.0538509643E+00  1.0133957163E+01
            xcart      3.8812158402E+00  0.0000000000E+00  8.8183532921E+00
                       0.0000000000E+00  3.8812158402E+00  1.4014388962E+01
                       3.8812158402E+00  0.0000000000E+00  1.9090382728E+01
                       0.0000000000E+00  3.8812158402E+00  8.8783742446E+00
                       3.8812158402E+00  0.0000000000E+00  1.3954368010E+01
                       0.0000000000E+00  3.8812158402E+00  1.9150403680E+01
             xred      5.0000000000E-01  0.0000000000E+00  3.1529300000E-01
                       0.0000000000E+00  5.0000000000E-01  5.0107300000E-01
                       5.0000000000E-01  0.0000000000E+00  6.8256100000E-01
                       0.0000000000E+00  5.0000000000E-01  3.1743900000E-01
                       5.0000000000E-01  0.0000000000E+00  4.9892700000E-01
                       0.0000000000E+00  5.0000000000E-01  6.8470700000E-01
            znucl       50.00000   34.00000

================================================================================


- Timing analysis has been suppressed with timopt=0



================================================================================

 Suggested references for the acknowledgment of ABINIT usage.

 The users of ABINIT have little formal obligations with respect to the ABINIT group
 (those specified in the GNU General Public License, http://www.gnu.org/copyleft/gpl.txt).
 However, it is common practice in the scientific literature,
 to acknowledge the efforts of people that have made the research possible.
 In this spirit, please find below suggested citations of work written by ABINIT developers,
 corresponding to implementations inside of ABINIT that you have used in the present run.
 Note also that it will be of great value to readers of publications presenting these results,
 to read papers enabling them to understand the theoretical formalism and details
 of the ABINIT implementation.
 For information on why they are suggested, see also https://docs.abinit.org/theory/acknowledgments.
-
- [1] The Abinit project: Impact, environment and recent developments.
- Computer Phys. Comm. 248, 107042 (2020).
- X.Gonze, B. Amadon, G. Antonius, F.Arnardi, L.Baguet, J.-M.Beuken,
- J.Bieder, F.Bottin, J.Bouchet, E.Bousquet, N.Brouwer, F.Bruneval,
- G.Brunin, T.Cavignac, J.-B. Charraud, Wei Chen, M.Cote, S.Cottenier,
- J.Denier, G.Geneste, Ph.Ghosez, M.Giantomassi, Y.Gillet, O.Gingras,
- D.R.Hamann, G.Hautier, Xu He, N.Helbig, N.Holzwarth, Y.Jia, F.Jollet,
- W.Lafargue-Dit-Hauret, K.Lejaeghere, M.A.L.Marques, A.Martin, C.Martins,
- H.P.C. Miranda, F.Naccarato, K. Persson, G.Petretto, V.Planes, Y.Pouillon,
- S.Prokhorenko, F.Ricci, G.-M.Rignanese, A.H.Romero, M.M.Schmitt, M.Torrent,
- M.J.van Setten, B.Van Troeye, M.J.Verstraete, G.Zerah and J.W.Zwanzig
- Comment: the fifth generic paper describing the ABINIT project.
- Note that a version of this paper, that is not formatted for Computer Phys. Comm. 
- is available at https://www.abinit.org/sites/default/files/ABINIT20.pdf .
- The licence allows the authors to put it on the Web.
- DOI and bibtex: see https://docs.abinit.org/theory/bibliography/#gonze2020
-
- [2] First-principles responses of solids to atomic displacements and homogeneous electric fields:,
- implementation of a conjugate-gradient algorithm. X. Gonze, Phys. Rev. B55, 10337 (1997).
- Comment: Non-vanishing rfphon and/or rfelfd, in the norm-conserving case.
- DOI and bibtex: see https://docs.abinit.org/theory/bibliography/#gonze1997
-
- [3] Dynamical matrices, Born effective charges, dielectric permittivity tensors, and ,
- interatomic force constants from density-functional perturbation theory,
- X. Gonze and C. Lee, Phys. Rev. B55, 10355 (1997).
- Comment: Non-vanishing rfphon and/or rfelfd, in the norm-conserving case.
- DOI and bibtex: see https://docs.abinit.org/theory/bibliography/#gonze1997a
-
- [4] Optimized norm-conserving Vanderbilt pseudopotentials.
- D.R. Hamann, Phys. Rev. B 88, 085117 (2013).
- Comment: Some pseudopotential generated using the ONCVPSP code were used.
- DOI and bibtex: see https://docs.abinit.org/theory/bibliography/#hamann2013
-
- [5] ABINIT: Overview, and focus on selected capabilities
- J. Chem. Phys. 152, 124102 (2020).
- A. Romero, D.C. Allan, B. Amadon, G. Antonius, T. Applencourt, L.Baguet,
- J.Bieder, F.Bottin, J.Bouchet, E.Bousquet, F.Bruneval,
- G.Brunin, D.Caliste, M.Cote,
- J.Denier, C. Dreyer, Ph.Ghosez, M.Giantomassi, Y.Gillet, O.Gingras,
- D.R.Hamann, G.Hautier, F.Jollet, G. Jomard,
- A.Martin, 
- H.P.C. Miranda, F.Naccarato, G.Petretto, N.A. Pike, V.Planes,
- S.Prokhorenko, T. Rangel, F.Ricci, G.-M.Rignanese, M.Royo, M.Stengel, M.Torrent,
- M.J.van Setten, B.Van Troeye, M.J.Verstraete, J.Wiktor, J.W.Zwanziger, and X.Gonze.
- Comment: a global overview of ABINIT, with focus on selected capabilities .
- Note that a version of this paper, that is not formatted for J. Chem. Phys 
- is available at https://www.abinit.org/sites/default/files/ABINIT20_JPC.pdf .
- The licence allows the authors to put it on the Web.
- DOI and bibtex: see https://docs.abinit.org/theory/bibliography/#romero2020
-
- [6] Recent developments in the ABINIT software package.
- Computer Phys. Comm. 205, 106 (2016).
- X.Gonze, F.Jollet, F.Abreu Araujo, D.Adams, B.Amadon, T.Applencourt,
- C.Audouze, J.-M.Beuken, J.Bieder, A.Bokhanchuk, E.Bousquet, F.Bruneval
- D.Caliste, M.Cote, F.Dahm, F.Da Pieve, M.Delaveau, M.Di Gennaro,
- B.Dorado, C.Espejo, G.Geneste, L.Genovese, A.Gerossier, M.Giantomassi,
- Y.Gillet, D.R.Hamann, L.He, G.Jomard, J.Laflamme Janssen, S.Le Roux,
- A.Levitt, A.Lherbier, F.Liu, I.Lukacevic, A.Martin, C.Martins,
- M.J.T.Oliveira, S.Ponce, Y.Pouillon, T.Rangel, G.-M.Rignanese,
- A.H.Romero, B.Rousseau, O.Rubel, A.A.Shukri, M.Stankovski, M.Torrent,
- M.J.Van Setten, B.Van Troeye, M.J.Verstraete, D.Waroquier, J.Wiktor,
- B.Xu, A.Zhou, J.W.Zwanziger.
- Comment: the fourth generic paper describing the ABINIT project.
- Note that a version of this paper, that is not formatted for Computer Phys. Comm. 
- is available at https://www.abinit.org/sites/default/files/ABINIT16.pdf .
- The licence allows the authors to put it on the Web.
- DOI and bibtex: see https://docs.abinit.org/theory/bibliography/#gonze2016
-
- Proc.   0 individual time (sec): cpu=       1316.2  wall=       1316.3

================================================================================

 Calculation completed.
.Delivered   6 WARNINGs and   0 COMMENTs to log file.
+Overall time at end (sec) : cpu=       7897.1  wall=       7897.3
