
.Version 9.2.2 of ABINIT 
.(MPI version, prepared for a x86_64_linux_gnu9.3 computer) 

.Copyright (C) 1998-2020 ABINIT group . 
 ABINIT comes with ABSOLUTELY NO WARRANTY.
 It is free software, and you are welcome to redistribute it
 under certain conditions (GNU General Public License,
 see ~abinit/COPYING or http://www.gnu.org/copyleft/gpl.txt).

 ABINIT is a project of the Universite Catholique de Louvain,
 Corning Inc. and other collaborators, see ~abinit/doc/developers/contributors.txt .
 Please read https://docs.abinit.org/theory/acknowledgments for suggested
 acknowledgments of the ABINIT effort.
 For more information, see https://www.abinit.org .

.Starting date : Sun 17 Mar 2024.
- ( at 12h15 )
  
- The starting date is more than 3 years after the initial release
- of this version of ABINIT, namely Nov 2020.
- This version of ABINIT is not supported anymore.
- Action: please, switch to a more recent version of ABINIT.
- input  file    -> Cs2TiI6.in
- output file    -> Cs2TiI6.out
- root for input  files -> Cs2TiI6i
- root for output files -> Cs2TiI6o


 Symmetries : space group P4 m m (# 99); Bravais tP (primitive tetrag.)
================================================================================
 Values of the parameters that define the memory need of the present run
     intxc =       0    ionmov =       0      iscf =      17    lmnmax =       6
     lnmax =       6     mgfft =     270  mpssoang =       3    mqgrid =   12867
     natom =      18  nloc_mem =       1    nspden =       1   nspinor =       1
    nsppol =       1      nsym =       8    n1xccc =    2501    ntypat =       3
    occopt =       1   xclevel =       2
-    mband =         144        mffmem =           1         mkmem =           2
       mpw =       18552          nfft =      349920          nkpt =           6
================================================================================
P This job should need less than                     207.850 Mbytes of memory.
  Rough estimation (10% accuracy) of disk space for files :
_ WF disk file :    244.584 Mbytes ; DEN or POT disk file :      2.672 Mbytes.
================================================================================

--------------------------------------------------------------------------------
------------- Echo of variables that govern the present computation ------------
--------------------------------------------------------------------------------
-
- outvars: echo of selected default values                                      
-   iomode0 =  0 , fftalg0 =112 , wfoptalg0 =  0
-
- outvars: echo of global parameters not present in the input file              
-  max_nthreads =    0
-
 -outvars: echo values of preprocessed input variables --------
            acell      7.7624316804E+00  7.7624316804E+00  7.7624316804E+00 Bohr
              amu      1.18710000E+02  7.89600000E+01  6.53900000E+01
           diemac      1.20000000E+01
             ecut      2.25000000E+01 Hartree
-          fftalg         112
             iscf          17
              ixc          11
              kpt      8.33333333E-02  8.33333333E-02  5.00000000E-01
                       2.50000000E-01  8.33333333E-02  5.00000000E-01
                       4.16666667E-01  8.33333333E-02  5.00000000E-01
                       2.50000000E-01  2.50000000E-01  5.00000000E-01
                       4.16666667E-01  2.50000000E-01  5.00000000E-01
                       4.16666667E-01  4.16666667E-01  5.00000000E-01
         kptrlatt        6    0    0      0    6    0      0    0    1
          kptrlen      4.65745901E+01
P           mkmem           2
            natom          18
            nband         144
            ngfft          36      36     270
             nkpt           6
            nstep         150
             nsym           8
           ntypat           3
              occ      2.000000  2.000000  2.000000  2.000000  2.000000  2.000000
                       2.000000  2.000000  2.000000  2.000000  2.000000  2.000000
                       2.000000  2.000000  2.000000  2.000000  2.000000  2.000000
                       2.000000  2.000000  2.000000  2.000000  2.000000  2.000000
                       2.000000  2.000000  2.000000  2.000000  2.000000  2.000000
                       2.000000  2.000000  2.000000  2.000000  2.000000  2.000000
                       2.000000  2.000000  2.000000  2.000000  2.000000  2.000000
                       2.000000  2.000000  2.000000  2.000000  2.000000  2.000000
                       2.000000  2.000000  2.000000  2.000000  2.000000  2.000000
                       2.000000  2.000000  2.000000  2.000000  2.000000  2.000000
                       2.000000  2.000000  2.000000  2.000000  2.000000  2.000000
                       2.000000  2.000000  2.000000  2.000000  2.000000  2.000000
                       2.000000  2.000000  2.000000  2.000000  2.000000  2.000000
                       2.000000  2.000000  2.000000  2.000000  2.000000  2.000000
                       2.000000  2.000000  2.000000  2.000000  2.000000  2.000000
                       2.000000  2.000000  2.000000  2.000000  2.000000  2.000000
                       2.000000  2.000000  2.000000  2.000000  2.000000  2.000000
                       2.000000  2.000000  2.000000  2.000000  2.000000  2.000000
                       2.000000  2.000000  2.000000  2.000000  2.000000  2.000000
                       2.000000  2.000000  2.000000  2.000000  2.000000  2.000000
                       2.000000  2.000000  2.000000  2.000000  2.000000  2.000000
                       2.000000  2.000000  2.000000  2.000000  2.000000  2.000000
                       2.000000  2.000000  2.000000  2.000000  2.000000  2.000000
                       2.000000  2.000000  2.000000  0.000000  0.000000  0.000000
           prtcif           1
            prtwf           0
            rprim      1.0000000000E+00  0.0000000000E+00  0.0000000000E+00
                       0.0000000000E+00  1.0000000000E+00  0.0000000000E+00
                       0.0000000000E+00  0.0000000000E+00  7.7624175269E+00
           shiftk      5.00000000E-01  5.00000000E-01  5.00000000E-01
          spgroup          99
           symrel      1  0  0   0  1  0   0  0  1       1  0  0   0 -1  0   0  0  1
                      -1  0  0   0 -1  0   0  0  1      -1  0  0   0  1  0   0  0  1
                       0  1  0   1  0  0   0  0  1       0  1  0  -1  0  0   0  0  1
                       0 -1  0  -1  0  0   0  0  1       0 -1  0   1  0  0   0  0  1
            tnons      0.0000000  0.0000000  0.0000000     0.0000000 -0.0000000  0.0000000
                      -0.0000000 -0.0000000  0.0000000    -0.0000000  0.0000000  0.0000000
                       0.5000000  0.5000000  0.0000000     0.5000000  0.5000000  0.0000000
                       0.5000000  0.5000000  0.0000000     0.5000000  0.5000000  0.0000000
           toldfe      1.00000000E-07 Hartree
            typat      1  1  1  1  1  1  1  2  2  2  2  2  2  2  2  2  3  3
           vdw_xc           5
              wtk        0.11111    0.22222    0.22222    0.11111    0.22222    0.11111
           xangst      2.0538509643E+00  0.0000000000E+00  4.6664718211E+00
                       0.0000000000E+00  2.0538509643E+00  7.4161030546E+00
                       2.0538509643E+00  0.0000000000E+00  1.0102186093E+01
                       0.0000000000E+00  2.0538509643E+00  1.2851817327E+01
                       2.0538509643E+00  0.0000000000E+00  1.5537932251E+01
                       0.0000000000E+00  2.0538509643E+00  1.8287563484E+01
                       2.0538509643E+00  0.0000000000E+00  2.0973646523E+01
                       0.0000000000E+00  2.0538509643E+00  4.6982299757E+00
                       2.0538509643E+00  0.0000000000E+00  7.3843448999E+00
                       0.0000000000E+00  2.0538509643E+00  1.0133976133E+01
                       2.0538509643E+00  0.0000000000E+00  1.2820059172E+01
                       0.0000000000E+00  2.0538509643E+00  1.5569690405E+01
                       2.0538509643E+00  0.0000000000E+00  1.8255773444E+01
                       0.0000000000E+00  2.0538509643E+00  2.1005404677E+01
                       2.0538509643E+00  0.0000000000E+00  2.4229208118E+01
                       0.0000000000E+00  2.0538509643E+00  2.7219225624E+01
                       2.0538509643E+00  2.0538509643E+00  2.5724232814E+01
                       0.0000000000E+00  0.0000000000E+00  2.5724232814E+01
            xcart      3.8812158402E+00  0.0000000000E+00  8.8183537487E+00
                       0.0000000000E+00  3.8812158402E+00  1.4014403746E+01
                       3.8812158402E+00  0.0000000000E+00  1.9090365059E+01
                       0.0000000000E+00  3.8812158402E+00  2.4286415057E+01
                       3.8812158402E+00  0.0000000000E+00  2.9362436625E+01
                       0.0000000000E+00  3.8812158402E+00  3.4558486623E+01
                       3.8812158402E+00  0.0000000000E+00  3.9634447936E+01
                       0.0000000000E+00  3.8812158402E+00  8.8783679635E+00
                       3.8812158402E+00  0.0000000000E+00  1.3954389532E+01
                       0.0000000000E+00  3.8812158402E+00  1.9150439529E+01
                       3.8812158402E+00  0.0000000000E+00  2.4226400842E+01
                       0.0000000000E+00  3.8812158402E+00  2.9422450840E+01
                       3.8812158402E+00  0.0000000000E+00  3.4498412153E+01
                       0.0000000000E+00  3.8812158402E+00  3.9694462151E+01
                       3.8812158402E+00  0.0000000000E+00  4.5786567759E+01
                       0.0000000000E+00  3.8812158402E+00  5.1436881979E+01
                       3.8812158402E+00  3.8812158402E+00  4.8611754996E+01
                       0.0000000000E+00  0.0000000000E+00  4.8611754996E+01
             xred      5.0000000000E-01  0.0000000000E+00  1.4635000000E-01
                       0.0000000000E+00  5.0000000000E-01  2.3258400000E-01
                       5.0000000000E-01  0.0000000000E+00  3.1682500000E-01
                       0.0000000000E+00  5.0000000000E-01  4.0305900000E-01
                       5.0000000000E-01  0.0000000000E+00  4.8730100000E-01
                       0.0000000000E+00  5.0000000000E-01  5.7353500000E-01
                       5.0000000000E-01  0.0000000000E+00  6.5777600000E-01
                       0.0000000000E+00  5.0000000000E-01  1.4734600000E-01
                       5.0000000000E-01  0.0000000000E+00  2.3158800000E-01
                       0.0000000000E+00  5.0000000000E-01  3.1782200000E-01
                       5.0000000000E-01  0.0000000000E+00  4.0206300000E-01
                       0.0000000000E+00  5.0000000000E-01  4.8829700000E-01
                       5.0000000000E-01  0.0000000000E+00  5.7253800000E-01
                       0.0000000000E+00  5.0000000000E-01  6.5877200000E-01
                       5.0000000000E-01  0.0000000000E+00  7.5987700000E-01
                       0.0000000000E+00  5.0000000000E-01  8.5365000000E-01
                       5.0000000000E-01  5.0000000000E-01  8.0676400000E-01
                       0.0000000000E+00  0.0000000000E+00  8.0676400000E-01
            znucl       50.00000   34.00000   30.00000

================================================================================

 chkinp: Checking input parameters for consistency.

================================================================================
== DATASET  1 ==================================================================
-   mpi_nproc: 4, omp_nthreads: -1 (-1 if OMP is not activated)


--- !DatasetInfo
iteration_state: {dtset: 1, }
dimensions: {natom: 18, nkpt: 6, mband: 144, nsppol: 1, nspinor: 1, nspden: 1, mpw: 18552, }
cutoff_energies: {ecut:  22.5, pawecutdg:  -1.0, }
electrons: {nelect:   2.82000000E+02, charge:   0.00000000E+00, occopt:   1.00000000E+00, tsmear:   1.00000000E-02, }
meta: {optdriver: 0, ionmov: 0, optcell: 0, iscf: 17, paral_kgb: 0, }
...

 Exchange-correlation functional for the present dataset will be:
  GGA: Perdew-Burke-Ernzerhof functional - ixc=11
 Citation for XC functional:
  J.P.Perdew, K.Burke, M.Ernzerhof, PRL 77, 3865 (1996)

 Real(R)+Recip(G) space primitive vectors, cartesian coordinates (Bohr,Bohr^-1):
 R(1)=  7.7624317  0.0000000  0.0000000  G(1)=  0.1288256  0.0000000  0.0000000
 R(2)=  0.0000000  7.7624317  0.0000000  G(2)=  0.0000000  0.1288256  0.0000000
 R(3)=  0.0000000  0.0000000 60.2552357  G(3)=  0.0000000  0.0000000  0.0165961
 Unit cell volume ucvol=  3.6307001E+03 bohr^3
 Angles (23,13,12)=  9.00000000E+01  9.00000000E+01  9.00000000E+01 degrees

 getcut: wavevector=  0.0000  0.0000  0.0000  ngfft=  36  36 270
         ecut(hartree)=     22.500   => boxcut(ratio)=   2.09852

--- Pseudopotential description ------------------------------------------------
- pspini: atom type   1  psp file is ../../../Psps_for_tests/ATOMICDATA_NC/Sn.psp8
- pspatm: opening atomic psp file    ../../../Psps_for_tests/ATOMICDATA_NC/Sn.psp8
- Sn    ONCVPSP  r_core=  2.27  2.62  1.86
- 50.00000  14.00000    150810                znucl, zion, pspdat
    8   11    2    4       600   0.00000      pspcod,pspxc,lmax,lloc,mmax,r2well
    5.99000000000000    6.50000000000000    0.00000000000000   rchrg,fchrg,qchrg
     nproj     2     2     2
     extension_switch     1
  pspatm : epsatm=   32.65190642
         --- l  ekb(1:nproj) -->
             0    5.462393    0.682281
             1    4.443814    0.825686
             2   -5.382195   -1.704077
 pspatm: atomic psp has been read  and splines computed

- pspini: atom type   2  psp file is ../../../Psps_for_tests/ATOMICDATA_NC/Se.psp8
- pspatm: opening atomic psp file    ../../../Psps_for_tests/ATOMICDATA_NC/Se.psp8
- Se    ONCVPSP  r_core=  1.82  1.50  1.91
- 34.00000  16.00000    150729                znucl, zion, pspdat
    8   11    2    4       600   0.00000      pspcod,pspxc,lmax,lloc,mmax,r2well
    5.99000000000000    5.00000000000000    0.00000000000000   rchrg,fchrg,qchrg
     nproj     2     2     2
     extension_switch     1
  pspatm : epsatm=   29.53325930
         --- l  ekb(1:nproj) -->
             0    8.612261    0.939919
             1    6.984962    1.281898
             2   -9.322521   -3.856218
 pspatm: atomic psp has been read  and splines computed

- pspini: atom type   3  psp file is ../../../Psps_for_tests/ATOMICDATA_NC/Zn.psp8
- pspatm: opening atomic psp file    ../../../Psps_for_tests/ATOMICDATA_NC/Zn.psp8
- Zn    ONCVPSP  r_core=  1.36  1.66  1.85
- 30.00000  20.00000    161102                znucl, zion, pspdat
    8   11    2    4       600   0.00000      pspcod,pspxc,lmax,lloc,mmax,r2well
    5.99000000000000    2.50000000000000    0.00000000000000   rchrg,fchrg,qchrg
     nproj     2     2     2
     extension_switch     1
  pspatm : epsatm=   26.67245340
         --- l  ekb(1:nproj) -->
             0    2.404235   -1.533451
             1   -4.677427   -1.530630
             2   -7.000316   -2.622858
 pspatm: atomic psp has been read  and splines computed

   1.54453539E+05                                ecore*ucvol(ha*bohr**3)
--------------------------------------------------------------------------------

_setup2: Arith. and geom. avg. npw (full set) are   18518.000   18517.994

================================================================================

--- !BeginCycle
iteration_state: {dtset: 1, }
solver: {iscf: 17, nstep: 150, nline: 4, wfoptalg: 0, }
tolerances: {toldfe: 1.00E-07, }
...

     iter   Etot(hartree)      deltaE(h)  residm     nres2
 ETOT  1  -2021.8015241804    -2.022E+03 7.821E-01 1.972E+03
 ETOT  2  -2195.0738498800    -1.733E+02 3.234E-01 8.516E+03
 ETOT  3  -2036.2374981031     1.588E+02 2.686E+01 3.704E+03
 ETOT  4  -2294.0896470075    -2.579E+02 3.240E+00 7.147E+03
 ETOT  5  -2069.9520996358     2.241E+02 1.548E+00 3.797E+03
 ETOT  6  -2030.6938688284     3.926E+01 1.749E+00 1.398E+03
 ETOT  7  -2036.8407005213    -6.147E+00 4.738E+00 8.534E+02
 ETOT  8  -2050.1864289524    -1.335E+01 2.979E+00 1.535E+03
 ETOT  9  -2064.1739355274    -1.399E+01 6.150E-01 1.363E+03
 ETOT 10  -2078.9292126288    -1.476E+01 7.010E-02 1.743E+03
 ETOT 11  -2116.1945972117    -3.727E+01 5.687E-01 1.608E+03
 ETOT 12  -2053.1667915209     6.303E+01 1.334E+00 9.870E+02
 ETOT 13  -2061.8180084493    -8.651E+00 4.001E-01 1.007E+03
 ETOT 14  -2056.5520836729     5.266E+00 2.560E-01 5.481E+02
 ETOT 15  -2062.6746432457    -6.123E+00 4.820E-01 3.318E+02
 ETOT 16  -2093.9528915579    -3.128E+01 5.419E+00 2.321E+03
 ETOT 17  -2135.5356978972    -4.158E+01 1.817E+00 3.329E+03
 ETOT 18  -2026.4547514449     1.091E+02 1.362E+00 8.807E+02
 ETOT 19  -2036.5409441187    -1.009E+01 2.776E+00 1.624E+02
 ETOT 20  -2052.3205507987    -1.578E+01 2.239E-01 1.911E+02
 ETOT 21  -2063.5888357385    -1.127E+01 2.484E-01 2.655E+02
 ETOT 22  -2052.4080694325     1.118E+01 2.428E-01 1.728E+02
 ETOT 23  -2051.5512221389     8.568E-01 5.202E-02 1.323E+02
 ETOT 24  -2052.3500765200    -7.989E-01 1.074E-02 1.329E+02
 ETOT 25  -2050.5378471988     1.812E+00 8.718E-02 9.199E+01
 ETOT 26  -2055.5239578900    -4.986E+00 1.082E-01 1.442E+02
 ETOT 27  -2055.4880896842     3.587E-02 6.955E-02 1.187E+02
 ETOT 28  -2055.4404991440     4.759E-02 1.659E+00 1.031E+02
 ETOT 29  -2049.0483206058     6.392E+00 2.653E-01 2.898E+01
 ETOT 30  -2052.2417790186    -3.193E+00 3.419E-02 5.927E+01
 ETOT 31  -2049.3986362805     2.843E+00 5.968E-02 9.795E+00
 ETOT 32  -2049.8245117891    -4.259E-01 4.194E-02 5.089E+00
 ETOT 33  -2050.4926981203    -6.682E-01 2.343E-02 1.172E+01
 ETOT 34  -2049.8937566733     5.989E-01 9.353E-03 4.659E+00
 ETOT 35  -2049.8575926255     3.616E-02 5.727E-03 3.255E+00
 ETOT 36  -2049.8627895871    -5.197E-03 7.506E-03 2.623E+00
 ETOT 37  -2050.2216408467    -3.589E-01 1.106E-02 1.039E+01
 ETOT 38  -2049.8804228495     3.412E-01 9.603E-03 2.910E+00
 ETOT 39  -2049.8907034135    -1.028E-02 6.263E-02 2.682E+00
 ETOT 40  -2049.8212381828     6.947E-02 1.087E-02 4.592E-01
 ETOT 41  -2049.8269827893    -5.745E-03 5.101E-03 3.225E-01
 ETOT 42  -2049.8437897216    -1.681E-02 5.980E-03 7.626E-01
 ETOT 43  -2049.8172235598     2.657E-02 4.342E-03 1.453E-01
 ETOT 44  -2049.8170826408     1.409E-04 5.794E-04 1.288E-01
 ETOT 45  -2049.8105005427     6.582E-03 8.065E-04 5.288E-02
 ETOT 46  -2049.8053097649     5.191E-03 1.509E-03 3.628E-02
 ETOT 47  -2049.8040895523     1.220E-03 1.807E-03 2.881E-02
 ETOT 48  -2049.8030828885     1.007E-03 9.460E-04 1.269E-02
 ETOT 49  -2049.8024627554     6.201E-04 1.607E-03 5.340E-03
 ETOT 50  -2049.8021201592     3.426E-04 4.351E-04 1.100E-03
 ETOT 51  -2049.8021068696     1.329E-05 6.694E-04 3.907E-04
 ETOT 52  -2049.8021216883    -1.482E-05 4.030E-04 2.187E-04
 ETOT 53  -2049.8021377388    -1.605E-05 5.342E-04 1.289E-04
 ETOT 54  -2049.8021598358    -2.210E-05 2.239E-04 6.293E-05
 ETOT 55  -2049.8021813648    -2.153E-05 2.858E-04 2.593E-05
 ETOT 56  -2049.8021974883    -1.612E-05 1.046E-04 7.772E-06
 ETOT 57  -2049.8022037459    -6.258E-06 1.496E-04 1.726E-06
 ETOT 58  -2049.8022049474    -1.201E-06 3.734E-05 2.111E-07
 ETOT 59  -2049.8022050362    -8.878E-08 7.132E-05 5.605E-08
 ETOT 60  -2049.8022050527    -1.652E-08 2.630E-05 1.751E-08

 At SCF step   60, etot is converged : 
  for the second time, diff in etot=  1.652E-08 < toldfe=  1.000E-07

 Cartesian components of stress tensor (hartree/bohr^3)
  sigma(1 1)=  1.58133893E-02  sigma(3 2)=  0.00000000E+00
  sigma(2 2)=  1.58133893E-02  sigma(3 1)=  0.00000000E+00
  sigma(3 3)=  1.55302759E-02  sigma(2 1)=  0.00000000E+00


--- !ResultsGS
iteration_state: {dtset: 1, }
comment   : Summary of ground state results
lattice_vectors:
- [  7.7624317,   0.0000000,   0.0000000, ]
- [  0.0000000,   7.7624317,   0.0000000, ]
- [  0.0000000,   0.0000000,  60.2552357, ]
lattice_lengths: [   7.76243,    7.76243,   60.25524, ]
lattice_angles: [ 90.000,  90.000,  90.000, ] # degrees, (23, 13, 12)
lattice_volume:   3.6307001E+03
convergence: {deltae: -1.652E-08, res2:  1.751E-08, residm:  2.630E-05, diffor: null, }
etotal    :  -2.04980221E+03
entropy   :   0.00000000E+00
fermie    :   1.51133427E-01
cartesian_stress_tensor: # hartree/bohr^3
- [  1.58133893E-02,   0.00000000E+00,   0.00000000E+00, ]
- [  0.00000000E+00,   1.58133893E-02,   0.00000000E+00, ]
- [  0.00000000E+00,   0.00000000E+00,   1.55302759E-02, ]
pressure_GPa:  -4.6247E+02
xred      :
- [  5.0000E-01,   0.0000E+00,   1.4635E-01, Sn]
- [  0.0000E+00,   5.0000E-01,   2.3258E-01, Sn]
- [  5.0000E-01,   0.0000E+00,   3.1682E-01, Sn]
- [  0.0000E+00,   5.0000E-01,   4.0306E-01, Sn]
- [  5.0000E-01,   0.0000E+00,   4.8730E-01, Sn]
- [  0.0000E+00,   5.0000E-01,   5.7354E-01, Sn]
- [  5.0000E-01,   0.0000E+00,   6.5778E-01, Sn]
- [  0.0000E+00,   5.0000E-01,   1.4735E-01, Se]
- [  5.0000E-01,   0.0000E+00,   2.3159E-01, Se]
- [  0.0000E+00,   5.0000E-01,   3.1782E-01, Se]
- [  5.0000E-01,   0.0000E+00,   4.0206E-01, Se]
- [  0.0000E+00,   5.0000E-01,   4.8830E-01, Se]
- [  5.0000E-01,   0.0000E+00,   5.7254E-01, Se]
- [  0.0000E+00,   5.0000E-01,   6.5877E-01, Se]
- [  5.0000E-01,   0.0000E+00,   7.5988E-01, Se]
- [  0.0000E+00,   5.0000E-01,   8.5365E-01, Se]
- [  5.0000E-01,   5.0000E-01,   8.0676E-01, Zn]
- [  0.0000E+00,   0.0000E+00,   8.0676E-01, Zn]
cartesian_forces: # hartree/bohr
- [ -0.00000000E+00,  -0.00000000E+00,  -1.41031905E-02, ]
- [ -0.00000000E+00,  -0.00000000E+00,  -1.46006405E-02, ]
- [ -0.00000000E+00,  -0.00000000E+00,   1.90131227E-03, ]
- [ -0.00000000E+00,  -0.00000000E+00,  -1.54234040E-03, ]
- [ -0.00000000E+00,  -0.00000000E+00,  -6.10663223E-04, ]
- [ -0.00000000E+00,  -0.00000000E+00,   9.96894457E-03, ]
- [ -0.00000000E+00,  -0.00000000E+00,   1.07495688E-02, ]
- [ -0.00000000E+00,  -0.00000000E+00,  -1.59976057E-02, ]
- [ -0.00000000E+00,  -0.00000000E+00,  -9.73097470E-03, ]
- [ -0.00000000E+00,  -0.00000000E+00,   4.85269041E-04, ]
- [ -0.00000000E+00,  -0.00000000E+00,   1.95810990E-04, ]
- [ -0.00000000E+00,  -0.00000000E+00,  -5.80082193E-03, ]
- [ -0.00000000E+00,  -0.00000000E+00,   8.88904484E-03, ]
- [ -0.00000000E+00,  -0.00000000E+00,   1.61668304E-02, ]
- [ -0.00000000E+00,  -0.00000000E+00,   1.04645906E-02, ]
- [ -0.00000000E+00,  -0.00000000E+00,  -1.00966856E-02, ]
- [ -0.00000000E+00,  -0.00000000E+00,   6.83077555E-03, ]
- [ -0.00000000E+00,  -0.00000000E+00,   6.83077555E-03, ]
force_length_stats: {min:   1.95810990E-04, max:   1.61668304E-02, mean:   8.05365807E-03, }
...

 Integrated electronic density in atomic spheres:
 ------------------------------------------------
 Atom  Sphere_radius  Integrated_density
    1        2.00000         10.55287324
    2        2.00000         10.58335897
    3        2.00000         10.58116351
    4        2.00000         10.58206853
    5        2.00000         10.57394130
    6        2.00000         10.57036952
    7        2.00000         10.55894661
    8        2.00000         13.29974826
    9        2.00000         13.33009959
   10        2.00000         13.32607986
   11        2.00000         13.30610471
   12        2.00000         13.31996251
   13        2.00000         13.32234450
   14        2.00000         13.28029554
   15        2.00000         13.27574440
   16        2.00000         13.27050775
   17        2.00000         18.10879166
   18        2.00000         18.10879166
================================================================================

 ----iterations are completed or convergence reached----

 Mean square residual over all n,k,spin=   65.533E-09; max=  26.295E-06
 reduced coordinates (array xred) for   18 atoms
       0.500000000000      0.000000000000      0.146350000000
       0.000000000000      0.500000000000      0.232584000000
       0.500000000000      0.000000000000      0.316825000000
       0.000000000000      0.500000000000      0.403059000000
       0.500000000000      0.000000000000      0.487301000000
       0.000000000000      0.500000000000      0.573535000000
       0.500000000000      0.000000000000      0.657776000000
       0.000000000000      0.500000000000      0.147346000000
       0.500000000000      0.000000000000      0.231588000000
       0.000000000000      0.500000000000      0.317822000000
       0.500000000000      0.000000000000      0.402063000000
       0.000000000000      0.500000000000      0.488297000000
       0.500000000000      0.000000000000      0.572538000000
       0.000000000000      0.500000000000      0.658772000000
       0.500000000000      0.000000000000      0.759877000000
       0.000000000000      0.500000000000      0.853650000000
       0.500000000000      0.500000000000      0.806764000000
       0.000000000000      0.000000000000      0.806764000000
 rms dE/dt=  3.3544E-01; max dE/dt=  9.1803E-01; dE/dt below (all hartree)
    1       0.000000000000      0.000000000000      0.803883089404
    2       0.000000000000      0.000000000000      0.833857060877
    3       0.000000000000      0.000000000000     -0.160471995002
    4       0.000000000000      0.000000000000      0.047026108281
    5       0.000000000000      0.000000000000     -0.009112319542
    6       0.000000000000      0.000000000000     -0.646589080756
    7       0.000000000000      0.000000000000     -0.693625776503
    8       0.000000000000      0.000000000000      0.918031527245
    9       0.000000000000      0.000000000000      0.540434198380
   10       0.000000000000      0.000000000000     -0.075147976427
   11       0.000000000000      0.000000000000     -0.057706613349
   12       0.000000000000      0.000000000000      0.303621917044
   13       0.000000000000      0.000000000000     -0.581519468083
   14       0.000000000000      0.000000000000     -1.020044152465
   15       0.000000000000      0.000000000000     -0.676454350741
   16       0.000000000000      0.000000000000      0.562470197932
   17       0.000000000000      0.000000000000     -0.457497966857
   18       0.000000000000      0.000000000000     -0.457497966857

 cartesian coordinates (angstrom) at end:
    1      2.05385096425820     0.00000000000000     4.66647182109250
    2      0.00000000000000     2.05385096425820     7.41610305457450
    3      2.05385096425820     0.00000000000000    10.10218609304839
    4      0.00000000000000     2.05385096425820    12.85181732653039
    5      2.05385096425820     0.00000000000000    15.53793225070173
    6      0.00000000000000     2.05385096425820    18.28756348418373
    7      2.05385096425820     0.00000000000000    20.97364652265761
    8      0.00000000000000     2.05385096425820     4.69822997574784
    9      2.05385096425820     0.00000000000000     7.38434489991917
   10      0.00000000000000     2.05385096425820    10.13397613340117
   11      2.05385096425820     0.00000000000000    12.82005917187506
   12      0.00000000000000     2.05385096425820    15.56969040535706
   13      2.05385096425820     0.00000000000000    18.25577344383095
   14      0.00000000000000     2.05385096425820    21.00540467731295
   15      2.05385096425820     0.00000000000000    24.22920811750125
   16      0.00000000000000     2.05385096425820    27.21922562402197
   17      2.05385096425820     2.05385096425820    25.72423281361033
   18      0.00000000000000     0.00000000000000    25.72423281361033

 cartesian forces (hartree/bohr) at end:
    1     -0.00000000000000    -0.00000000000000    -0.01410319045497
    2     -0.00000000000000    -0.00000000000000    -0.01460064052901
    3     -0.00000000000000    -0.00000000000000     0.00190131227024
    4     -0.00000000000000    -0.00000000000000    -0.00154234039793
    5     -0.00000000000000    -0.00000000000000    -0.00061066322257
    6     -0.00000000000000    -0.00000000000000     0.00996894456619
    7     -0.00000000000000    -0.00000000000000     0.01074956877551
    8     -0.00000000000000    -0.00000000000000    -0.01599760571139
    9     -0.00000000000000    -0.00000000000000    -0.00973097469905
   10     -0.00000000000000    -0.00000000000000     0.00048526904105
   11     -0.00000000000000    -0.00000000000000     0.00019581099035
   12     -0.00000000000000    -0.00000000000000    -0.00580082193344
   13     -0.00000000000000    -0.00000000000000     0.00888904483818
   14     -0.00000000000000    -0.00000000000000     0.01616683039637
   15     -0.00000000000000    -0.00000000000000     0.01046459062291
   16     -0.00000000000000    -0.00000000000000    -0.01009668564991
   17     -0.00000000000000    -0.00000000000000     0.00683077554873
   18     -0.00000000000000    -0.00000000000000     0.00683077554873
 frms,max,avg= 5.5495551E-03 1.6166830E-02   0.000E+00  0.000E+00  7.619E-04 h/b

 cartesian forces (eV/Angstrom) at end:
    1     -0.00000000000000    -0.00000000000000    -0.72521515078761
    2     -0.00000000000000    -0.00000000000000    -0.75079505992947
    3     -0.00000000000000    -0.00000000000000     0.09776939970846
    4     -0.00000000000000    -0.00000000000000    -0.07931032540633
    5     -0.00000000000000    -0.00000000000000    -0.03140156281991
    6     -0.00000000000000    -0.00000000000000     0.51262369744252
    7     -0.00000000000000    -0.00000000000000     0.55276500486350
    8     -0.00000000000000    -0.00000000000000    -0.82262989181522
    9     -0.00000000000000    -0.00000000000000    -0.50038679589629
   10     -0.00000000000000    -0.00000000000000     0.02495353529408
   11     -0.00000000000000    -0.00000000000000     0.01006900511960
   12     -0.00000000000000    -0.00000000000000    -0.29829023202837
   13     -0.00000000000000    -0.00000000000000     0.45709302538738
   14     -0.00000000000000    -0.00000000000000     0.83133177426016
   15     -0.00000000000000    -0.00000000000000     0.53811084029222
   16     -0.00000000000000    -0.00000000000000    -0.51919240752178
   17     -0.00000000000000    -0.00000000000000     0.35125257191853
   18     -0.00000000000000    -0.00000000000000     0.35125257191853
 frms,max,avg= 2.8536957E-01 8.3133177E-01   0.000E+00  0.000E+00  3.918E-02 e/A
 length scales=  7.762431680422  7.762431680422  7.762431680422 bohr
              =  4.107701928516  4.107701928516  4.107701928516 angstroms
 prteigrs : about to open file Cs2TiI6o_EIG
 Fermi (or HOMO) energy (hartree) =   0.15113   Average Vxc (hartree)=  -0.31886
 Eigenvalues (hartree) for nkpt=   6  k points:
 kpt#   1, nband=144, wtk=  0.11111, kpt=  0.0833  0.0833  0.5000 (reduced coord)
  -4.72844   -4.72843   -2.96575   -2.96554   -2.96334   -2.96317   -2.96315   -2.96313
  -1.67872   -1.67799   -1.67740   -1.67717   -1.67696   -1.67369   -1.67273   -1.67197
  -1.67065   -1.66997   -1.66948   -1.66933   -1.66852   -1.66730   -1.66626   -1.66573
  -1.66553   -1.66509   -1.66415   -1.66354   -1.66336   -1.66303   -1.66294   -1.66286
  -1.66201   -1.66194   -1.66089   -1.66071   -1.66060   -1.66043   -1.66027   -1.65860
  -1.65797   -1.65564   -1.65379   -1.64338   -1.64234   -1.64118   -1.64048   -1.63968
  -1.63919   -1.63771   -1.63635   -1.63600   -1.63502   -0.66362   -0.66317   -0.66215
  -0.66214   -0.66166   -0.66163   -0.66116   -0.66102   -0.66068   -0.66053   -0.65977
  -0.65930   -0.65922   -0.65793   -0.65775   -0.65542   -0.65441   -0.65389   -0.65381
  -0.65368   -0.65320   -0.65316   -0.65308   -0.65307   -0.65305   -0.65284   -0.65279
  -0.65231   -0.65226   -0.65212   -0.65210   -0.65203   -0.65174   -0.65146   -0.65119
  -0.41660   -0.40738   -0.40072   -0.39495   -0.37932   -0.37506   -0.36310   -0.34783
  -0.34492   -0.19144   -0.18924   -0.18831   -0.18830   -0.18725   -0.17620   -0.17577
  -0.17422   -0.17035   -0.16893   -0.13829   -0.13663   -0.12099   -0.11450   -0.09788
  -0.08358   -0.07900   -0.06142   -0.05248   -0.03390   -0.03095   -0.02281   -0.01133
  -0.00790   -0.00717   -0.00016    0.00564    0.00880    0.01758    0.02611    0.03051
   0.03568    0.03706    0.04097    0.04589    0.04614    0.05599    0.06183    0.06368
   0.07446    0.07881    0.09086    0.10571    0.12834    0.16007    0.17498    0.20809
 prteigrs : prtvol=0 or 1, do not print more k-points.


--- !EnergyTerms
iteration_state     : {dtset: 1, }
comment             : Components of total free energy in Hartree
kinetic             :  1.18162809371731E+03
hartree             :  2.34025938613078E+03
xc                  : -4.13231261631271E+02
Ewald energy        :  6.33536689736591E+02
psp_core            :  4.25409802170910E+01
local_psp           : -5.13963490362810E+03
non_local_psp       : -6.94676344572939E+02
VdWaals_dft_d       : -2.24773619699195E-01
total_energy        : -2.04980213365024E+03
...


--- !EnergyTermsDC
iteration_state     : {dtset: 1, }
comment             : '"Double-counting" decomposition of free energy'
band_energy         : -2.60725649877675E+02
Ewald energy        :  6.33536689736591E+02
psp_core            :  4.25409802170910E+01
xc_dc               : -2.46492945150898E+03
VdWaals_dft_d       : -2.24773619699195E-01
total_energy_dc     : -2.04980220505268E+03
...


 Cartesian components of stress tensor (hartree/bohr^3)
  sigma(1 1)=  1.58133893E-02  sigma(3 2)=  0.00000000E+00
  sigma(2 2)=  1.58133893E-02  sigma(3 1)=  0.00000000E+00
  sigma(3 3)=  1.55302759E-02  sigma(2 1)=  0.00000000E+00

-Cartesian components of stress tensor (GPa)         [Pressure= -4.6247E+02 GPa]
- sigma(1 1)=  4.65245897E+02  sigma(3 2)=  0.00000000E+00
- sigma(2 2)=  4.65245897E+02  sigma(3 1)=  0.00000000E+00
- sigma(3 3)=  4.56916414E+02  sigma(2 1)=  0.00000000E+00

== END DATASET(S) ==============================================================
================================================================================
  
 -outvars: echo values of variables after computation  --------
            acell      7.7624316804E+00  7.7624316804E+00  7.7624316804E+00 Bohr
              amu      1.18710000E+02  7.89600000E+01  6.53900000E+01
           diemac      1.20000000E+01
             ecut      2.25000000E+01 Hartree
           etotal     -2.0498022051E+03
            fcart     -0.0000000000E+00 -0.0000000000E+00 -1.4103190455E-02
                      -0.0000000000E+00 -0.0000000000E+00 -1.4600640529E-02
                      -0.0000000000E+00 -0.0000000000E+00  1.9013122702E-03
                      -0.0000000000E+00 -0.0000000000E+00 -1.5423403979E-03
                      -0.0000000000E+00 -0.0000000000E+00 -6.1066322257E-04
                      -0.0000000000E+00 -0.0000000000E+00  9.9689445662E-03
                      -0.0000000000E+00 -0.0000000000E+00  1.0749568776E-02
                      -0.0000000000E+00 -0.0000000000E+00 -1.5997605711E-02
                      -0.0000000000E+00 -0.0000000000E+00 -9.7309746990E-03
                      -0.0000000000E+00 -0.0000000000E+00  4.8526904105E-04
                      -0.0000000000E+00 -0.0000000000E+00  1.9581099035E-04
                      -0.0000000000E+00 -0.0000000000E+00 -5.8008219334E-03
                      -0.0000000000E+00 -0.0000000000E+00  8.8890448382E-03
                      -0.0000000000E+00 -0.0000000000E+00  1.6166830396E-02
                      -0.0000000000E+00 -0.0000000000E+00  1.0464590623E-02
                      -0.0000000000E+00 -0.0000000000E+00 -1.0096685650E-02
                      -0.0000000000E+00 -0.0000000000E+00  6.8307755487E-03
                      -0.0000000000E+00 -0.0000000000E+00  6.8307755487E-03
-          fftalg         112
             iscf          17
              ixc          11
              kpt      8.33333333E-02  8.33333333E-02  5.00000000E-01
                       2.50000000E-01  8.33333333E-02  5.00000000E-01
                       4.16666667E-01  8.33333333E-02  5.00000000E-01
                       2.50000000E-01  2.50000000E-01  5.00000000E-01
                       4.16666667E-01  2.50000000E-01  5.00000000E-01
                       4.16666667E-01  4.16666667E-01  5.00000000E-01
         kptrlatt        6    0    0      0    6    0      0    0    1
          kptrlen      4.65745901E+01
P           mkmem           2
            natom          18
            nband         144
            ngfft          36      36     270
             nkpt           6
            nstep         150
             nsym           8
           ntypat           3
              occ      2.000000  2.000000  2.000000  2.000000  2.000000  2.000000
                       2.000000  2.000000  2.000000  2.000000  2.000000  2.000000
                       2.000000  2.000000  2.000000  2.000000  2.000000  2.000000
                       2.000000  2.000000  2.000000  2.000000  2.000000  2.000000
                       2.000000  2.000000  2.000000  2.000000  2.000000  2.000000
                       2.000000  2.000000  2.000000  2.000000  2.000000  2.000000
                       2.000000  2.000000  2.000000  2.000000  2.000000  2.000000
                       2.000000  2.000000  2.000000  2.000000  2.000000  2.000000
                       2.000000  2.000000  2.000000  2.000000  2.000000  2.000000
                       2.000000  2.000000  2.000000  2.000000  2.000000  2.000000
                       2.000000  2.000000  2.000000  2.000000  2.000000  2.000000
                       2.000000  2.000000  2.000000  2.000000  2.000000  2.000000
                       2.000000  2.000000  2.000000  2.000000  2.000000  2.000000
                       2.000000  2.000000  2.000000  2.000000  2.000000  2.000000
                       2.000000  2.000000  2.000000  2.000000  2.000000  2.000000
                       2.000000  2.000000  2.000000  2.000000  2.000000  2.000000
                       2.000000  2.000000  2.000000  2.000000  2.000000  2.000000
                       2.000000  2.000000  2.000000  2.000000  2.000000  2.000000
                       2.000000  2.000000  2.000000  2.000000  2.000000  2.000000
                       2.000000  2.000000  2.000000  2.000000  2.000000  2.000000
                       2.000000  2.000000  2.000000  2.000000  2.000000  2.000000
                       2.000000  2.000000  2.000000  2.000000  2.000000  2.000000
                       2.000000  2.000000  2.000000  2.000000  2.000000  2.000000
                       2.000000  2.000000  2.000000  0.000000  0.000000  0.000000
           prtcif           1
            prtwf           0
            rprim      1.0000000000E+00  0.0000000000E+00  0.0000000000E+00
                       0.0000000000E+00  1.0000000000E+00  0.0000000000E+00
                       0.0000000000E+00  0.0000000000E+00  7.7624175269E+00
           shiftk      5.00000000E-01  5.00000000E-01  5.00000000E-01
          spgroup          99
           strten      1.5813389294E-02  1.5813389294E-02  1.5530275858E-02
                       0.0000000000E+00  0.0000000000E+00  0.0000000000E+00
           symrel      1  0  0   0  1  0   0  0  1       1  0  0   0 -1  0   0  0  1
                      -1  0  0   0 -1  0   0  0  1      -1  0  0   0  1  0   0  0  1
                       0  1  0   1  0  0   0  0  1       0  1  0  -1  0  0   0  0  1
                       0 -1  0  -1  0  0   0  0  1       0 -1  0   1  0  0   0  0  1
            tnons      0.0000000  0.0000000  0.0000000     0.0000000 -0.0000000  0.0000000
                      -0.0000000 -0.0000000  0.0000000    -0.0000000  0.0000000  0.0000000
                       0.5000000  0.5000000  0.0000000     0.5000000  0.5000000  0.0000000
                       0.5000000  0.5000000  0.0000000     0.5000000  0.5000000  0.0000000
           toldfe      1.00000000E-07 Hartree
            typat      1  1  1  1  1  1  1  2  2  2  2  2  2  2  2  2  3  3
           vdw_xc           5
              wtk        0.11111    0.22222    0.22222    0.11111    0.22222    0.11111
           xangst      2.0538509643E+00  0.0000000000E+00  4.6664718211E+00
                       0.0000000000E+00  2.0538509643E+00  7.4161030546E+00
                       2.0538509643E+00  0.0000000000E+00  1.0102186093E+01
                       0.0000000000E+00  2.0538509643E+00  1.2851817327E+01
                       2.0538509643E+00  0.0000000000E+00  1.5537932251E+01
                       0.0000000000E+00  2.0538509643E+00  1.8287563484E+01
                       2.0538509643E+00  0.0000000000E+00  2.0973646523E+01
                       0.0000000000E+00  2.0538509643E+00  4.6982299757E+00
                       2.0538509643E+00  0.0000000000E+00  7.3843448999E+00
                       0.0000000000E+00  2.0538509643E+00  1.0133976133E+01
                       2.0538509643E+00  0.0000000000E+00  1.2820059172E+01
                       0.0000000000E+00  2.0538509643E+00  1.5569690405E+01
                       2.0538509643E+00  0.0000000000E+00  1.8255773444E+01
                       0.0000000000E+00  2.0538509643E+00  2.1005404677E+01
                       2.0538509643E+00  0.0000000000E+00  2.4229208118E+01
                       0.0000000000E+00  2.0538509643E+00  2.7219225624E+01
                       2.0538509643E+00  2.0538509643E+00  2.5724232814E+01
                       0.0000000000E+00  0.0000000000E+00  2.5724232814E+01
            xcart      3.8812158402E+00  0.0000000000E+00  8.8183537487E+00
                       0.0000000000E+00  3.8812158402E+00  1.4014403746E+01
                       3.8812158402E+00  0.0000000000E+00  1.9090365059E+01
                       0.0000000000E+00  3.8812158402E+00  2.4286415057E+01
                       3.8812158402E+00  0.0000000000E+00  2.9362436625E+01
                       0.0000000000E+00  3.8812158402E+00  3.4558486623E+01
                       3.8812158402E+00  0.0000000000E+00  3.9634447936E+01
                       0.0000000000E+00  3.8812158402E+00  8.8783679635E+00
                       3.8812158402E+00  0.0000000000E+00  1.3954389532E+01
                       0.0000000000E+00  3.8812158402E+00  1.9150439529E+01
                       3.8812158402E+00  0.0000000000E+00  2.4226400842E+01
                       0.0000000000E+00  3.8812158402E+00  2.9422450840E+01
                       3.8812158402E+00  0.0000000000E+00  3.4498412153E+01
                       0.0000000000E+00  3.8812158402E+00  3.9694462151E+01
                       3.8812158402E+00  0.0000000000E+00  4.5786567759E+01
                       0.0000000000E+00  3.8812158402E+00  5.1436881979E+01
                       3.8812158402E+00  3.8812158402E+00  4.8611754996E+01
                       0.0000000000E+00  0.0000000000E+00  4.8611754996E+01
             xred      5.0000000000E-01  0.0000000000E+00  1.4635000000E-01
                       0.0000000000E+00  5.0000000000E-01  2.3258400000E-01
                       5.0000000000E-01  0.0000000000E+00  3.1682500000E-01
                       0.0000000000E+00  5.0000000000E-01  4.0305900000E-01
                       5.0000000000E-01  0.0000000000E+00  4.8730100000E-01
                       0.0000000000E+00  5.0000000000E-01  5.7353500000E-01
                       5.0000000000E-01  0.0000000000E+00  6.5777600000E-01
                       0.0000000000E+00  5.0000000000E-01  1.4734600000E-01
                       5.0000000000E-01  0.0000000000E+00  2.3158800000E-01
                       0.0000000000E+00  5.0000000000E-01  3.1782200000E-01
                       5.0000000000E-01  0.0000000000E+00  4.0206300000E-01
                       0.0000000000E+00  5.0000000000E-01  4.8829700000E-01
                       5.0000000000E-01  0.0000000000E+00  5.7253800000E-01
                       0.0000000000E+00  5.0000000000E-01  6.5877200000E-01
                       5.0000000000E-01  0.0000000000E+00  7.5987700000E-01
                       0.0000000000E+00  5.0000000000E-01  8.5365000000E-01
                       5.0000000000E-01  5.0000000000E-01  8.0676400000E-01
                       0.0000000000E+00  0.0000000000E+00  8.0676400000E-01
            znucl       50.00000   34.00000   30.00000

================================================================================


- Timing analysis has been suppressed with timopt=0



================================================================================

 Suggested references for the acknowledgment of ABINIT usage.

 The users of ABINIT have little formal obligations with respect to the ABINIT group
 (those specified in the GNU General Public License, http://www.gnu.org/copyleft/gpl.txt).
 However, it is common practice in the scientific literature,
 to acknowledge the efforts of people that have made the research possible.
 In this spirit, please find below suggested citations of work written by ABINIT developers,
 corresponding to implementations inside of ABINIT that you have used in the present run.
 Note also that it will be of great value to readers of publications presenting these results,
 to read papers enabling them to understand the theoretical formalism and details
 of the ABINIT implementation.
 For information on why they are suggested, see also https://docs.abinit.org/theory/acknowledgments.
-
- [1] The Abinit project: Impact, environment and recent developments.
- Computer Phys. Comm. 248, 107042 (2020).
- X.Gonze, B. Amadon, G. Antonius, F.Arnardi, L.Baguet, J.-M.Beuken,
- J.Bieder, F.Bottin, J.Bouchet, E.Bousquet, N.Brouwer, F.Bruneval,
- G.Brunin, T.Cavignac, J.-B. Charraud, Wei Chen, M.Cote, S.Cottenier,
- J.Denier, G.Geneste, Ph.Ghosez, M.Giantomassi, Y.Gillet, O.Gingras,
- D.R.Hamann, G.Hautier, Xu He, N.Helbig, N.Holzwarth, Y.Jia, F.Jollet,
- W.Lafargue-Dit-Hauret, K.Lejaeghere, M.A.L.Marques, A.Martin, C.Martins,
- H.P.C. Miranda, F.Naccarato, K. Persson, G.Petretto, V.Planes, Y.Pouillon,
- S.Prokhorenko, F.Ricci, G.-M.Rignanese, A.H.Romero, M.M.Schmitt, M.Torrent,
- M.J.van Setten, B.Van Troeye, M.J.Verstraete, G.Zerah and J.W.Zwanzig
- Comment: the fifth generic paper describing the ABINIT project.
- Note that a version of this paper, that is not formatted for Computer Phys. Comm. 
- is available at https://www.abinit.org/sites/default/files/ABINIT20.pdf .
- The licence allows the authors to put it on the Web.
- DOI and bibtex: see https://docs.abinit.org/theory/bibliography/#gonze2020
-
- [2] Optimized norm-conserving Vanderbilt pseudopotentials.
- D.R. Hamann, Phys. Rev. B 88, 085117 (2013).
- Comment: Some pseudopotential generated using the ONCVPSP code were used.
- DOI and bibtex: see https://docs.abinit.org/theory/bibliography/#hamann2013
-
- [3] ABINIT: Overview, and focus on selected capabilities
- J. Chem. Phys. 152, 124102 (2020).
- A. Romero, D.C. Allan, B. Amadon, G. Antonius, T. Applencourt, L.Baguet,
- J.Bieder, F.Bottin, J.Bouchet, E.Bousquet, F.Bruneval,
- G.Brunin, D.Caliste, M.Cote,
- J.Denier, C. Dreyer, Ph.Ghosez, M.Giantomassi, Y.Gillet, O.Gingras,
- D.R.Hamann, G.Hautier, F.Jollet, G. Jomard,
- A.Martin, 
- H.P.C. Miranda, F.Naccarato, G.Petretto, N.A. Pike, V.Planes,
- S.Prokhorenko, T. Rangel, F.Ricci, G.-M.Rignanese, M.Royo, M.Stengel, M.Torrent,
- M.J.van Setten, B.Van Troeye, M.J.Verstraete, J.Wiktor, J.W.Zwanziger, and X.Gonze.
- Comment: a global overview of ABINIT, with focus on selected capabilities .
- Note that a version of this paper, that is not formatted for J. Chem. Phys 
- is available at https://www.abinit.org/sites/default/files/ABINIT20_JPC.pdf .
- The licence allows the authors to put it on the Web.
- DOI and bibtex: see https://docs.abinit.org/theory/bibliography/#romero2020
-
- [4] Recent developments in the ABINIT software package.
- Computer Phys. Comm. 205, 106 (2016).
- X.Gonze, F.Jollet, F.Abreu Araujo, D.Adams, B.Amadon, T.Applencourt,
- C.Audouze, J.-M.Beuken, J.Bieder, A.Bokhanchuk, E.Bousquet, F.Bruneval
- D.Caliste, M.Cote, F.Dahm, F.Da Pieve, M.Delaveau, M.Di Gennaro,
- B.Dorado, C.Espejo, G.Geneste, L.Genovese, A.Gerossier, M.Giantomassi,
- Y.Gillet, D.R.Hamann, L.He, G.Jomard, J.Laflamme Janssen, S.Le Roux,
- A.Levitt, A.Lherbier, F.Liu, I.Lukacevic, A.Martin, C.Martins,
- M.J.T.Oliveira, S.Ponce, Y.Pouillon, T.Rangel, G.-M.Rignanese,
- A.H.Romero, B.Rousseau, O.Rubel, A.A.Shukri, M.Stankovski, M.Torrent,
- M.J.Van Setten, B.Van Troeye, M.J.Verstraete, D.Waroquier, J.Wiktor,
- B.Xu, A.Zhou, J.W.Zwanziger.
- Comment: the fourth generic paper describing the ABINIT project.
- Note that a version of this paper, that is not formatted for Computer Phys. Comm. 
- is available at https://www.abinit.org/sites/default/files/ABINIT16.pdf .
- The licence allows the authors to put it on the Web.
- DOI and bibtex: see https://docs.abinit.org/theory/bibliography/#gonze2016
-
- And optionally:
-
- [5] ABINIT: First-principles approach of materials and nanosystem properties.
- Computer Phys. Comm. 180, 2582-2615 (2009).
- X. Gonze, B. Amadon, P.-M. Anglade, J.-M. Beuken, F. Bottin, P. Boulanger, F. Bruneval,
- D. Caliste, R. Caracas, M. Cote, T. Deutsch, L. Genovese, Ph. Ghosez, M. Giantomassi
- S. Goedecker, D.R. Hamann, P. Hermet, F. Jollet, G. Jomard, S. Leroux, M. Mancini, S. Mazevet,
- M.J.T. Oliveira, G. Onida, Y. Pouillon, T. Rangel, G.-M. Rignanese, D. Sangalli, R. Shaltaf,
- M. Torrent, M.J. Verstraete, G. Zerah, J.W. Zwanziger
- Comment: the third generic paper describing the ABINIT project.
- Note that a version of this paper, that is not formatted for Computer Phys. Comm. 
- is available at https://www.abinit.org/sites/default/files/ABINIT_CPC_v10.pdf .
- The licence allows the authors to put it on the Web.
- DOI and bibtex: see https://docs.abinit.org/theory/bibliography/#gonze2009
-
- Proc.   0 individual time (sec): cpu=       3073.5  wall=       3077.1

================================================================================

 Calculation completed.
.Delivered   0 WARNINGs and   0 COMMENTs to log file.
+Overall time at end (sec) : cpu=      12296.8  wall=      12308.3
