
.Version 9.2.2 of ABINIT 
.(MPI version, prepared for a x86_64_linux_gnu9.3 computer) 

.Copyright (C) 1998-2020 ABINIT group . 
 ABINIT comes with ABSOLUTELY NO WARRANTY.
 It is free software, and you are welcome to redistribute it
 under certain conditions (GNU General Public License,
 see ~abinit/COPYING or http://www.gnu.org/copyleft/gpl.txt).

 ABINIT is a project of the Universite Catholique de Louvain,
 Corning Inc. and other collaborators, see ~abinit/doc/developers/contributors.txt .
 Please read https://docs.abinit.org/theory/acknowledgments for suggested
 acknowledgments of the ABINIT effort.
 For more information, see https://www.abinit.org .

.Starting date : Sat 16 Mar 2024.
- ( at 14h18 )
  
- The starting date is more than 3 years after the initial release
- of this version of ABINIT, namely Nov 2020.
- This version of ABINIT is not supported anymore.
- Action: please, switch to a more recent version of ABINIT.
- input  file    -> Cs2TiI6.in
- output file    -> Cs2TiI6.out
- root for input  files -> Cs2TiI6i
- root for output files -> Cs2TiI6o


 DATASET    1 : space group P4 m m (# 99); Bravais tP (primitive tetrag.)
================================================================================
 Values of the parameters that define the memory need for DATASET  1.
     intxc =       0    ionmov =       0      iscf =       7    lmnmax =       6
     lnmax =       6     mgfft =     128  mpssoang =       3    mqgrid =    6225
     natom =       6  nloc_mem =       1    nspden =       1   nspinor =       1
    nsppol =       1      nsym =       8    n1xccc =    2501    ntypat =       3
    occopt =       1   xclevel =       2
-    mband =          52        mffmem =           1         mkmem =           5
       mpw =        8983          nfft =      165888          nkpt =          30
================================================================================
P This job should need less than                      92.252 Mbytes of memory.
  Rough estimation (10% accuracy) of disk space for files :
_ WF disk file :    213.831 Mbytes ; DEN or POT disk file :      1.268 Mbytes.
================================================================================


 DATASET    2 : space group P4 m m (# 99); Bravais tP (primitive tetrag.)
================================================================================
 Values of the parameters that define the memory need for DATASET  2.
     intxc =       0    ionmov =       0      iscf =      -2    lmnmax =       6
     lnmax =       6     mgfft =     128  mpssoang =       3    mqgrid =    6225
     natom =       6  nloc_mem =       1    nspden =       1   nspinor =       1
    nsppol =       1      nsym =       8    n1xccc =    2501    ntypat =       3
    occopt =       1   xclevel =       2
-    mband =         120        mffmem =           1         mkmem =           5
       mpw =        8983          nfft =      165888          nkpt =          30
================================================================================
P This job should need less than                     117.387 Mbytes of memory.
  Rough estimation (10% accuracy) of disk space for files :
_ WF disk file :    493.453 Mbytes ; DEN or POT disk file :      1.268 Mbytes.
================================================================================


 DATASET    3 : space group P4 m m (# 99); Bravais tP (primitive tetrag.)
================================================================================
 Values of the parameters that define the memory need for DATASET  3.
     intxc =       0    ionmov =       0      iscf =      -2    lmnmax =       6
     lnmax =       6     mgfft =     128  mpssoang =       3    mqgrid =    6225
     natom =       6  nloc_mem =       1    nspden =       1   nspinor =       1
    nsppol =       1      nsym =       8    n1xccc =    2501    ntypat =       3
    occopt =       1   xclevel =       2
-    mband =         120        mffmem =           1         mkmem =          34
       mpw =        8983          nfft =      165888          nkpt =         200
================================================================================
P This job should need less than                     601.331 Mbytes of memory.
  Rough estimation (10% accuracy) of disk space for files :
_ WF disk file :   3289.675 Mbytes ; DEN or POT disk file :      1.268 Mbytes.
================================================================================


 DATASET    4 : space group P4 m m (# 99); Bravais tP (primitive tetrag.)
================================================================================
 Values of the parameters that define the memory need for DATASET  4 (RF).
     intxc =       0      iscf =      -3    lmnmax =       6     lnmax =       6
     mgfft =     128  mpssoang =       3    mqgrid =    6225     natom =       6
  nloc_mem =       1    nspden =       1   nspinor =       1    nsppol =       1
      nsym =       8    n1xccc =    2501    ntypat =       3    occopt =       1
   xclevel =       2
-    mband =         120        mffmem =           1         mkmem =          34
-   mkqmem =          34        mk1mem =          34           mpw =        8983
      nfft =      165888          nkpt =         200
================================================================================
P This job should need less than                    1772.165 Mbytes of memory.
  Rough estimation (10% accuracy) of disk space for files :
_ WF disk file :   -806.325 Mbytes ; DEN or POT disk file :      1.268 Mbytes.
================================================================================


 DATASET    5 : space group P4 m m (# 99); Bravais tP (primitive tetrag.)
================================================================================
 Values of the parameters that define the memory need for DATASET  5 (RF).
     intxc =       0      iscf =      -3    lmnmax =       6     lnmax =       6
     mgfft =     128  mpssoang =       3    mqgrid =    6225     natom =       6
  nloc_mem =       1    nspden =       1   nspinor =       1    nsppol =       1
      nsym =       8    n1xccc =    2501    ntypat =       3    occopt =       1
   xclevel =       2
-    mband =         120        mffmem =           1         mkmem =          34
-   mkqmem =          34        mk1mem =          34           mpw =        8983
      nfft =      165888          nkpt =         200
================================================================================
P This job should need less than                    1772.165 Mbytes of memory.
  Rough estimation (10% accuracy) of disk space for files :
_ WF disk file :   -806.325 Mbytes ; DEN or POT disk file :      1.268 Mbytes.
================================================================================


 DATASET    6 : space group P4 m m (# 99); Bravais tP (primitive tetrag.)
================================================================================
 Values of the parameters that define the memory need for DATASET  6 (RF).
     intxc =       0      iscf =      -3    lmnmax =       6     lnmax =       6
     mgfft =     128  mpssoang =       3    mqgrid =    6225     natom =       6
  nloc_mem =       1    nspden =       1   nspinor =       1    nsppol =       1
      nsym =       8    n1xccc =    2501    ntypat =       3    occopt =       1
   xclevel =       2
-    mband =         120        mffmem =           1         mkmem =          34
-   mkqmem =          34        mk1mem =          34           mpw =        8983
      nfft =      165888          nkpt =         200
================================================================================
P This job should need less than                    1772.165 Mbytes of memory.
  Rough estimation (10% accuracy) of disk space for files :
_ WF disk file :   -806.325 Mbytes ; DEN or POT disk file :      1.268 Mbytes.
================================================================================

--------------------------------------------------------------------------------
------------- Echo of variables that govern the present computation ------------
--------------------------------------------------------------------------------
-
- outvars: echo of selected default values                                      
-   iomode0 =  0 , fftalg0 =112 , wfoptalg0 =  0
-
- outvars: echo of global parameters not present in the input file              
-  max_nthreads =    0
-
 -outvars: echo values of preprocessed input variables --------
            acell      7.7624316804E+00  7.7624316804E+00  7.7624316804E+00 Bohr
              amu      1.18710000E+02  7.89600000E+01  6.53900000E+01
           diemac      1.20000000E+01
             ecut      2.25000000E+01 Hartree
-          fftalg         112
           getden1          0
           getden2          1
           getden3          1
           getden4          0
           getden5          0
           getden6          0
           getwfk1          0
           getwfk2          1
           getwfk3          2
           getwfk4          3
           getwfk5          3
           getwfk6          3
             iscf1          7
             iscf2         -2
             iscf3         -2
             iscf4         -3
             iscf5         -3
             iscf6         -3
              ixc          11
           jdtset        1    2    3    4    5    6
              kpt1     5.00000000E-02  5.00000000E-02  1.25000000E-01
                       1.50000000E-01  5.00000000E-02  1.25000000E-01
                       2.50000000E-01  5.00000000E-02  1.25000000E-01
                       3.50000000E-01  5.00000000E-02  1.25000000E-01
                       4.50000000E-01  5.00000000E-02  1.25000000E-01
                       1.50000000E-01  1.50000000E-01  1.25000000E-01
                       2.50000000E-01  1.50000000E-01  1.25000000E-01
                       3.50000000E-01  1.50000000E-01  1.25000000E-01
                       4.50000000E-01  1.50000000E-01  1.25000000E-01
                       2.50000000E-01  2.50000000E-01  1.25000000E-01
                       3.50000000E-01  2.50000000E-01  1.25000000E-01
                       4.50000000E-01  2.50000000E-01  1.25000000E-01
                       3.50000000E-01  3.50000000E-01  1.25000000E-01
                       4.50000000E-01  3.50000000E-01  1.25000000E-01
                       4.50000000E-01  4.50000000E-01  1.25000000E-01
                       5.00000000E-02  5.00000000E-02  3.75000000E-01
                       1.50000000E-01  5.00000000E-02  3.75000000E-01
                       2.50000000E-01  5.00000000E-02  3.75000000E-01
                       3.50000000E-01  5.00000000E-02  3.75000000E-01
                       4.50000000E-01  5.00000000E-02  3.75000000E-01
                       1.50000000E-01  1.50000000E-01  3.75000000E-01
                       2.50000000E-01  1.50000000E-01  3.75000000E-01
                       3.50000000E-01  1.50000000E-01  3.75000000E-01
                       4.50000000E-01  1.50000000E-01  3.75000000E-01
                       2.50000000E-01  2.50000000E-01  3.75000000E-01
                       3.50000000E-01  2.50000000E-01  3.75000000E-01
                       4.50000000E-01  2.50000000E-01  3.75000000E-01
                       3.50000000E-01  3.50000000E-01  3.75000000E-01
                       4.50000000E-01  3.50000000E-01  3.75000000E-01
                       4.50000000E-01  4.50000000E-01  3.75000000E-01
              kpt2     5.00000000E-02  5.00000000E-02  1.25000000E-01
                       1.50000000E-01  5.00000000E-02  1.25000000E-01
                       2.50000000E-01  5.00000000E-02  1.25000000E-01
                       3.50000000E-01  5.00000000E-02  1.25000000E-01
                       4.50000000E-01  5.00000000E-02  1.25000000E-01
                       1.50000000E-01  1.50000000E-01  1.25000000E-01
                       2.50000000E-01  1.50000000E-01  1.25000000E-01
                       3.50000000E-01  1.50000000E-01  1.25000000E-01
                       4.50000000E-01  1.50000000E-01  1.25000000E-01
                       2.50000000E-01  2.50000000E-01  1.25000000E-01
                       3.50000000E-01  2.50000000E-01  1.25000000E-01
                       4.50000000E-01  2.50000000E-01  1.25000000E-01
                       3.50000000E-01  3.50000000E-01  1.25000000E-01
                       4.50000000E-01  3.50000000E-01  1.25000000E-01
                       4.50000000E-01  4.50000000E-01  1.25000000E-01
                       5.00000000E-02  5.00000000E-02  3.75000000E-01
                       1.50000000E-01  5.00000000E-02  3.75000000E-01
                       2.50000000E-01  5.00000000E-02  3.75000000E-01
                       3.50000000E-01  5.00000000E-02  3.75000000E-01
                       4.50000000E-01  5.00000000E-02  3.75000000E-01
                       1.50000000E-01  1.50000000E-01  3.75000000E-01
                       2.50000000E-01  1.50000000E-01  3.75000000E-01
                       3.50000000E-01  1.50000000E-01  3.75000000E-01
                       4.50000000E-01  1.50000000E-01  3.75000000E-01
                       2.50000000E-01  2.50000000E-01  3.75000000E-01
                       3.50000000E-01  2.50000000E-01  3.75000000E-01
                       4.50000000E-01  2.50000000E-01  3.75000000E-01
                       3.50000000E-01  3.50000000E-01  3.75000000E-01
                       4.50000000E-01  3.50000000E-01  3.75000000E-01
                       4.50000000E-01  4.50000000E-01  3.75000000E-01
              kpt3     5.00000000E-02  5.00000000E-02  1.25000000E-01
                       1.50000000E-01  5.00000000E-02  1.25000000E-01
                       2.50000000E-01  5.00000000E-02  1.25000000E-01
                       3.50000000E-01  5.00000000E-02  1.25000000E-01
                       4.50000000E-01  5.00000000E-02  1.25000000E-01
                      -4.50000000E-01  5.00000000E-02  1.25000000E-01
                      -3.50000000E-01  5.00000000E-02  1.25000000E-01
                      -2.50000000E-01  5.00000000E-02  1.25000000E-01
                      -1.50000000E-01  5.00000000E-02  1.25000000E-01
                      -5.00000000E-02  5.00000000E-02  1.25000000E-01
                       5.00000000E-02  1.50000000E-01  1.25000000E-01
                       1.50000000E-01  1.50000000E-01  1.25000000E-01
                       2.50000000E-01  1.50000000E-01  1.25000000E-01
                       3.50000000E-01  1.50000000E-01  1.25000000E-01
                       4.50000000E-01  1.50000000E-01  1.25000000E-01
                      -4.50000000E-01  1.50000000E-01  1.25000000E-01
                      -3.50000000E-01  1.50000000E-01  1.25000000E-01
                      -2.50000000E-01  1.50000000E-01  1.25000000E-01
                      -1.50000000E-01  1.50000000E-01  1.25000000E-01
                      -5.00000000E-02  1.50000000E-01  1.25000000E-01
                       5.00000000E-02  2.50000000E-01  1.25000000E-01
                       1.50000000E-01  2.50000000E-01  1.25000000E-01
                       2.50000000E-01  2.50000000E-01  1.25000000E-01
                       3.50000000E-01  2.50000000E-01  1.25000000E-01
                       4.50000000E-01  2.50000000E-01  1.25000000E-01
                      -4.50000000E-01  2.50000000E-01  1.25000000E-01
                      -3.50000000E-01  2.50000000E-01  1.25000000E-01
                      -2.50000000E-01  2.50000000E-01  1.25000000E-01
                      -1.50000000E-01  2.50000000E-01  1.25000000E-01
                      -5.00000000E-02  2.50000000E-01  1.25000000E-01
                       5.00000000E-02  3.50000000E-01  1.25000000E-01
                       1.50000000E-01  3.50000000E-01  1.25000000E-01
                       2.50000000E-01  3.50000000E-01  1.25000000E-01
                       3.50000000E-01  3.50000000E-01  1.25000000E-01
                       4.50000000E-01  3.50000000E-01  1.25000000E-01
                      -4.50000000E-01  3.50000000E-01  1.25000000E-01
                      -3.50000000E-01  3.50000000E-01  1.25000000E-01
                      -2.50000000E-01  3.50000000E-01  1.25000000E-01
                      -1.50000000E-01  3.50000000E-01  1.25000000E-01
                      -5.00000000E-02  3.50000000E-01  1.25000000E-01
                       5.00000000E-02  4.50000000E-01  1.25000000E-01
                       1.50000000E-01  4.50000000E-01  1.25000000E-01
                       2.50000000E-01  4.50000000E-01  1.25000000E-01
                       3.50000000E-01  4.50000000E-01  1.25000000E-01
                       4.50000000E-01  4.50000000E-01  1.25000000E-01
                      -4.50000000E-01  4.50000000E-01  1.25000000E-01
                      -3.50000000E-01  4.50000000E-01  1.25000000E-01
                      -2.50000000E-01  4.50000000E-01  1.25000000E-01
                      -1.50000000E-01  4.50000000E-01  1.25000000E-01
                      -5.00000000E-02  4.50000000E-01  1.25000000E-01
              kpt4     5.00000000E-02  5.00000000E-02  1.25000000E-01
                       1.50000000E-01  5.00000000E-02  1.25000000E-01
                       2.50000000E-01  5.00000000E-02  1.25000000E-01
                       3.50000000E-01  5.00000000E-02  1.25000000E-01
                       4.50000000E-01  5.00000000E-02  1.25000000E-01
                      -4.50000000E-01  5.00000000E-02  1.25000000E-01
                      -3.50000000E-01  5.00000000E-02  1.25000000E-01
                      -2.50000000E-01  5.00000000E-02  1.25000000E-01
                      -1.50000000E-01  5.00000000E-02  1.25000000E-01
                      -5.00000000E-02  5.00000000E-02  1.25000000E-01
                       5.00000000E-02  1.50000000E-01  1.25000000E-01
                       1.50000000E-01  1.50000000E-01  1.25000000E-01
                       2.50000000E-01  1.50000000E-01  1.25000000E-01
                       3.50000000E-01  1.50000000E-01  1.25000000E-01
                       4.50000000E-01  1.50000000E-01  1.25000000E-01
                      -4.50000000E-01  1.50000000E-01  1.25000000E-01
                      -3.50000000E-01  1.50000000E-01  1.25000000E-01
                      -2.50000000E-01  1.50000000E-01  1.25000000E-01
                      -1.50000000E-01  1.50000000E-01  1.25000000E-01
                      -5.00000000E-02  1.50000000E-01  1.25000000E-01
                       5.00000000E-02  2.50000000E-01  1.25000000E-01
                       1.50000000E-01  2.50000000E-01  1.25000000E-01
                       2.50000000E-01  2.50000000E-01  1.25000000E-01
                       3.50000000E-01  2.50000000E-01  1.25000000E-01
                       4.50000000E-01  2.50000000E-01  1.25000000E-01
                      -4.50000000E-01  2.50000000E-01  1.25000000E-01
                      -3.50000000E-01  2.50000000E-01  1.25000000E-01
                      -2.50000000E-01  2.50000000E-01  1.25000000E-01
                      -1.50000000E-01  2.50000000E-01  1.25000000E-01
                      -5.00000000E-02  2.50000000E-01  1.25000000E-01
                       5.00000000E-02  3.50000000E-01  1.25000000E-01
                       1.50000000E-01  3.50000000E-01  1.25000000E-01
                       2.50000000E-01  3.50000000E-01  1.25000000E-01
                       3.50000000E-01  3.50000000E-01  1.25000000E-01
                       4.50000000E-01  3.50000000E-01  1.25000000E-01
                      -4.50000000E-01  3.50000000E-01  1.25000000E-01
                      -3.50000000E-01  3.50000000E-01  1.25000000E-01
                      -2.50000000E-01  3.50000000E-01  1.25000000E-01
                      -1.50000000E-01  3.50000000E-01  1.25000000E-01
                      -5.00000000E-02  3.50000000E-01  1.25000000E-01
                       5.00000000E-02  4.50000000E-01  1.25000000E-01
                       1.50000000E-01  4.50000000E-01  1.25000000E-01
                       2.50000000E-01  4.50000000E-01  1.25000000E-01
                       3.50000000E-01  4.50000000E-01  1.25000000E-01
                       4.50000000E-01  4.50000000E-01  1.25000000E-01
                      -4.50000000E-01  4.50000000E-01  1.25000000E-01
                      -3.50000000E-01  4.50000000E-01  1.25000000E-01
                      -2.50000000E-01  4.50000000E-01  1.25000000E-01
                      -1.50000000E-01  4.50000000E-01  1.25000000E-01
                      -5.00000000E-02  4.50000000E-01  1.25000000E-01
              kpt5     5.00000000E-02  5.00000000E-02  1.25000000E-01
                       1.50000000E-01  5.00000000E-02  1.25000000E-01
                       2.50000000E-01  5.00000000E-02  1.25000000E-01
                       3.50000000E-01  5.00000000E-02  1.25000000E-01
                       4.50000000E-01  5.00000000E-02  1.25000000E-01
                      -4.50000000E-01  5.00000000E-02  1.25000000E-01
                      -3.50000000E-01  5.00000000E-02  1.25000000E-01
                      -2.50000000E-01  5.00000000E-02  1.25000000E-01
                      -1.50000000E-01  5.00000000E-02  1.25000000E-01
                      -5.00000000E-02  5.00000000E-02  1.25000000E-01
                       5.00000000E-02  1.50000000E-01  1.25000000E-01
                       1.50000000E-01  1.50000000E-01  1.25000000E-01
                       2.50000000E-01  1.50000000E-01  1.25000000E-01
                       3.50000000E-01  1.50000000E-01  1.25000000E-01
                       4.50000000E-01  1.50000000E-01  1.25000000E-01
                      -4.50000000E-01  1.50000000E-01  1.25000000E-01
                      -3.50000000E-01  1.50000000E-01  1.25000000E-01
                      -2.50000000E-01  1.50000000E-01  1.25000000E-01
                      -1.50000000E-01  1.50000000E-01  1.25000000E-01
                      -5.00000000E-02  1.50000000E-01  1.25000000E-01
                       5.00000000E-02  2.50000000E-01  1.25000000E-01
                       1.50000000E-01  2.50000000E-01  1.25000000E-01
                       2.50000000E-01  2.50000000E-01  1.25000000E-01
                       3.50000000E-01  2.50000000E-01  1.25000000E-01
                       4.50000000E-01  2.50000000E-01  1.25000000E-01
                      -4.50000000E-01  2.50000000E-01  1.25000000E-01
                      -3.50000000E-01  2.50000000E-01  1.25000000E-01
                      -2.50000000E-01  2.50000000E-01  1.25000000E-01
                      -1.50000000E-01  2.50000000E-01  1.25000000E-01
                      -5.00000000E-02  2.50000000E-01  1.25000000E-01
                       5.00000000E-02  3.50000000E-01  1.25000000E-01
                       1.50000000E-01  3.50000000E-01  1.25000000E-01
                       2.50000000E-01  3.50000000E-01  1.25000000E-01
                       3.50000000E-01  3.50000000E-01  1.25000000E-01
                       4.50000000E-01  3.50000000E-01  1.25000000E-01
                      -4.50000000E-01  3.50000000E-01  1.25000000E-01
                      -3.50000000E-01  3.50000000E-01  1.25000000E-01
                      -2.50000000E-01  3.50000000E-01  1.25000000E-01
                      -1.50000000E-01  3.50000000E-01  1.25000000E-01
                      -5.00000000E-02  3.50000000E-01  1.25000000E-01
                       5.00000000E-02  4.50000000E-01  1.25000000E-01
                       1.50000000E-01  4.50000000E-01  1.25000000E-01
                       2.50000000E-01  4.50000000E-01  1.25000000E-01
                       3.50000000E-01  4.50000000E-01  1.25000000E-01
                       4.50000000E-01  4.50000000E-01  1.25000000E-01
                      -4.50000000E-01  4.50000000E-01  1.25000000E-01
                      -3.50000000E-01  4.50000000E-01  1.25000000E-01
                      -2.50000000E-01  4.50000000E-01  1.25000000E-01
                      -1.50000000E-01  4.50000000E-01  1.25000000E-01
                      -5.00000000E-02  4.50000000E-01  1.25000000E-01
              kpt6     5.00000000E-02  5.00000000E-02  1.25000000E-01
                       1.50000000E-01  5.00000000E-02  1.25000000E-01
                       2.50000000E-01  5.00000000E-02  1.25000000E-01
                       3.50000000E-01  5.00000000E-02  1.25000000E-01
                       4.50000000E-01  5.00000000E-02  1.25000000E-01
                      -4.50000000E-01  5.00000000E-02  1.25000000E-01
                      -3.50000000E-01  5.00000000E-02  1.25000000E-01
                      -2.50000000E-01  5.00000000E-02  1.25000000E-01
                      -1.50000000E-01  5.00000000E-02  1.25000000E-01
                      -5.00000000E-02  5.00000000E-02  1.25000000E-01
                       5.00000000E-02  1.50000000E-01  1.25000000E-01
                       1.50000000E-01  1.50000000E-01  1.25000000E-01
                       2.50000000E-01  1.50000000E-01  1.25000000E-01
                       3.50000000E-01  1.50000000E-01  1.25000000E-01
                       4.50000000E-01  1.50000000E-01  1.25000000E-01
                      -4.50000000E-01  1.50000000E-01  1.25000000E-01
                      -3.50000000E-01  1.50000000E-01  1.25000000E-01
                      -2.50000000E-01  1.50000000E-01  1.25000000E-01
                      -1.50000000E-01  1.50000000E-01  1.25000000E-01
                      -5.00000000E-02  1.50000000E-01  1.25000000E-01
                       5.00000000E-02  2.50000000E-01  1.25000000E-01
                       1.50000000E-01  2.50000000E-01  1.25000000E-01
                       2.50000000E-01  2.50000000E-01  1.25000000E-01
                       3.50000000E-01  2.50000000E-01  1.25000000E-01
                       4.50000000E-01  2.50000000E-01  1.25000000E-01
                      -4.50000000E-01  2.50000000E-01  1.25000000E-01
                      -3.50000000E-01  2.50000000E-01  1.25000000E-01
                      -2.50000000E-01  2.50000000E-01  1.25000000E-01
                      -1.50000000E-01  2.50000000E-01  1.25000000E-01
                      -5.00000000E-02  2.50000000E-01  1.25000000E-01
                       5.00000000E-02  3.50000000E-01  1.25000000E-01
                       1.50000000E-01  3.50000000E-01  1.25000000E-01
                       2.50000000E-01  3.50000000E-01  1.25000000E-01
                       3.50000000E-01  3.50000000E-01  1.25000000E-01
                       4.50000000E-01  3.50000000E-01  1.25000000E-01
                      -4.50000000E-01  3.50000000E-01  1.25000000E-01
                      -3.50000000E-01  3.50000000E-01  1.25000000E-01
                      -2.50000000E-01  3.50000000E-01  1.25000000E-01
                      -1.50000000E-01  3.50000000E-01  1.25000000E-01
                      -5.00000000E-02  3.50000000E-01  1.25000000E-01
                       5.00000000E-02  4.50000000E-01  1.25000000E-01
                       1.50000000E-01  4.50000000E-01  1.25000000E-01
                       2.50000000E-01  4.50000000E-01  1.25000000E-01
                       3.50000000E-01  4.50000000E-01  1.25000000E-01
                       4.50000000E-01  4.50000000E-01  1.25000000E-01
                      -4.50000000E-01  4.50000000E-01  1.25000000E-01
                      -3.50000000E-01  4.50000000E-01  1.25000000E-01
                      -2.50000000E-01  4.50000000E-01  1.25000000E-01
                      -1.50000000E-01  4.50000000E-01  1.25000000E-01
                      -5.00000000E-02  4.50000000E-01  1.25000000E-01
                       outvar_i_n : Printing only first  50 k-points.
           kptopt1          1
           kptopt2          1
           kptopt3          2
           kptopt4          2
           kptopt5          2
           kptopt6          2
         kptrlatt       10    0    0      0   10    0      0    0    4
          kptrlen      7.76243168E+01
P           mkmem1          5
P           mkmem2          5
P           mkmem3         34
P           mkmem4         34
P           mkmem5         34
P           mkmem6         34
P          mkqmem1          5
P          mkqmem2          5
P          mkqmem3         34
P          mkqmem4         34
P          mkqmem5         34
P          mkqmem6         34
P          mk1mem1          5
P          mk1mem2          5
P          mk1mem3         34
P          mk1mem4         34
P          mk1mem5         34
P          mk1mem6         34
            natom           6
            nband1         52
            nband2        120
            nband3        120
            nband4        120
            nband5        120
            nband6        120
           nbdbuf1          0
           nbdbuf2          2
           nbdbuf3          2
           nbdbuf4          2
           nbdbuf5          2
           nbdbuf6          2
           ndtset           6
            ngfft          36      36     128
             nkpt1         30
             nkpt2         30
             nkpt3        200
             nkpt4        200
             nkpt5        200
             nkpt6        200
            nline1          4
            nline2          4
            nline3          4
            nline4          0
            nline5          0
            nline6          0
             nqpt1          0
             nqpt2          0
             nqpt3          0
             nqpt4          1
             nqpt5          1
             nqpt6          1
            nstep1        400
            nstep2        200
            nstep3        200
            nstep4          1
            nstep5          1
            nstep6          1
             nsym           8
           ntypat           3
              occ1     2.000000  2.000000  2.000000  2.000000  2.000000  2.000000
                       2.000000  2.000000  2.000000  2.000000  2.000000  2.000000
                       2.000000  2.000000  2.000000  2.000000  2.000000  2.000000
                       2.000000  2.000000  2.000000  2.000000  2.000000  2.000000
                       2.000000  2.000000  2.000000  2.000000  2.000000  2.000000
                       2.000000  2.000000  2.000000  2.000000  2.000000  2.000000
                       2.000000  2.000000  2.000000  2.000000  2.000000  2.000000
                       2.000000  2.000000  2.000000  2.000000  2.000000  2.000000
                       2.000000  2.000000  2.000000  0.000000
              occ4     2.000000  2.000000  2.000000  2.000000  2.000000  2.000000
                       2.000000  2.000000  2.000000  2.000000  2.000000  2.000000
                       2.000000  2.000000  2.000000  2.000000  2.000000  2.000000
                       2.000000  2.000000  2.000000  2.000000  2.000000  2.000000
                       2.000000  2.000000  2.000000  2.000000  2.000000  2.000000
                       2.000000  2.000000  2.000000  2.000000  2.000000  2.000000
                       2.000000  2.000000  2.000000  2.000000  2.000000  2.000000
                       2.000000  2.000000  2.000000  2.000000  2.000000  2.000000
                       2.000000  2.000000  2.000000  0.000000  0.000000  0.000000
                       0.000000  0.000000  0.000000  0.000000  0.000000  0.000000
                       0.000000  0.000000  0.000000  0.000000  0.000000  0.000000
                       0.000000  0.000000  0.000000  0.000000  0.000000  0.000000
                       0.000000  0.000000  0.000000  0.000000  0.000000  0.000000
                       0.000000  0.000000  0.000000  0.000000  0.000000  0.000000
                       0.000000  0.000000  0.000000  0.000000  0.000000  0.000000
                       0.000000  0.000000  0.000000  0.000000  0.000000  0.000000
                       0.000000  0.000000  0.000000  0.000000  0.000000  0.000000
                       0.000000  0.000000  0.000000  0.000000  0.000000  0.000000
                       0.000000  0.000000  0.000000  0.000000  0.000000  0.000000
                       0.000000  0.000000  0.000000  0.000000  0.000000  0.000000
              occ5     2.000000  2.000000  2.000000  2.000000  2.000000  2.000000
                       2.000000  2.000000  2.000000  2.000000  2.000000  2.000000
                       2.000000  2.000000  2.000000  2.000000  2.000000  2.000000
                       2.000000  2.000000  2.000000  2.000000  2.000000  2.000000
                       2.000000  2.000000  2.000000  2.000000  2.000000  2.000000
                       2.000000  2.000000  2.000000  2.000000  2.000000  2.000000
                       2.000000  2.000000  2.000000  2.000000  2.000000  2.000000
                       2.000000  2.000000  2.000000  2.000000  2.000000  2.000000
                       2.000000  2.000000  2.000000  0.000000  0.000000  0.000000
                       0.000000  0.000000  0.000000  0.000000  0.000000  0.000000
                       0.000000  0.000000  0.000000  0.000000  0.000000  0.000000
                       0.000000  0.000000  0.000000  0.000000  0.000000  0.000000
                       0.000000  0.000000  0.000000  0.000000  0.000000  0.000000
                       0.000000  0.000000  0.000000  0.000000  0.000000  0.000000
                       0.000000  0.000000  0.000000  0.000000  0.000000  0.000000
                       0.000000  0.000000  0.000000  0.000000  0.000000  0.000000
                       0.000000  0.000000  0.000000  0.000000  0.000000  0.000000
                       0.000000  0.000000  0.000000  0.000000  0.000000  0.000000
                       0.000000  0.000000  0.000000  0.000000  0.000000  0.000000
                       0.000000  0.000000  0.000000  0.000000  0.000000  0.000000
              occ6     2.000000  2.000000  2.000000  2.000000  2.000000  2.000000
                       2.000000  2.000000  2.000000  2.000000  2.000000  2.000000
                       2.000000  2.000000  2.000000  2.000000  2.000000  2.000000
                       2.000000  2.000000  2.000000  2.000000  2.000000  2.000000
                       2.000000  2.000000  2.000000  2.000000  2.000000  2.000000
                       2.000000  2.000000  2.000000  2.000000  2.000000  2.000000
                       2.000000  2.000000  2.000000  2.000000  2.000000  2.000000
                       2.000000  2.000000  2.000000  2.000000  2.000000  2.000000
                       2.000000  2.000000  2.000000  0.000000  0.000000  0.000000
                       0.000000  0.000000  0.000000  0.000000  0.000000  0.000000
                       0.000000  0.000000  0.000000  0.000000  0.000000  0.000000
                       0.000000  0.000000  0.000000  0.000000  0.000000  0.000000
                       0.000000  0.000000  0.000000  0.000000  0.000000  0.000000
                       0.000000  0.000000  0.000000  0.000000  0.000000  0.000000
                       0.000000  0.000000  0.000000  0.000000  0.000000  0.000000
                       0.000000  0.000000  0.000000  0.000000  0.000000  0.000000
                       0.000000  0.000000  0.000000  0.000000  0.000000  0.000000
                       0.000000  0.000000  0.000000  0.000000  0.000000  0.000000
                       0.000000  0.000000  0.000000  0.000000  0.000000  0.000000
                       0.000000  0.000000  0.000000  0.000000  0.000000  0.000000
        optdriver1          0
        optdriver2          0
        optdriver3          0
        optdriver4          1
        optdriver5          1
        optdriver6          1
            prtwf1          1
            prtwf2          1
            prtwf3          1
            prtwf4          3
            prtwf5          3
            prtwf6          3
            rfdir1          0       0       0
            rfdir2          0       0       0
            rfdir3          0       0       0
            rfdir4          1       0       0
            rfdir5          0       1       0
            rfdir6          0       0       1
           rfelfd1          0
           rfelfd2          0
           rfelfd3          0
           rfelfd4          2
           rfelfd5          2
           rfelfd6          2
            rprim      1.0000000000E+00  0.0000000000E+00  0.0000000000E+00
                       0.0000000000E+00  1.0000000000E+00  0.0000000000E+00
                       0.0000000000E+00  0.0000000000E+00  3.7552899407E+00
           shiftk      5.00000000E-01  5.00000000E-01  5.00000000E-01
          spgroup          99
           symrel      1  0  0   0  1  0   0  0  1       1  0  0   0 -1  0   0  0  1
                      -1  0  0   0 -1  0   0  0  1      -1  0  0   0  1  0   0  0  1
                       0  1  0   1  0  0   0  0  1       0  1  0  -1  0  0   0  0  1
                       0 -1  0  -1  0  0   0  0  1       0 -1  0   1  0  0   0  0  1
            tnons      0.0000000  0.0000000  0.0000000     0.0000000  0.0000000  0.0000000
                       0.0000000  0.0000000  0.0000000     0.0000000  0.0000000  0.0000000
                       0.5000000  0.5000000  0.0000000     0.5000000  0.5000000  0.0000000
                       0.5000000  0.5000000  0.0000000     0.5000000  0.5000000  0.0000000
           tolwfr      1.00000000E-20
            typat      1  2  2  2  3  3
           vdw_xc           5
              wtk1       0.02000    0.04000    0.04000    0.04000    0.04000    0.02000
                         0.04000    0.04000    0.04000    0.02000    0.04000    0.04000
                         0.02000    0.04000    0.02000    0.02000    0.04000    0.04000
                         0.04000    0.04000    0.02000    0.04000    0.04000    0.04000
                         0.02000    0.04000    0.04000    0.02000    0.04000    0.02000
              wtk2       0.02000    0.04000    0.04000    0.04000    0.04000    0.02000
                         0.04000    0.04000    0.04000    0.02000    0.04000    0.04000
                         0.02000    0.04000    0.02000    0.02000    0.04000    0.04000
                         0.04000    0.04000    0.02000    0.04000    0.04000    0.04000
                         0.02000    0.04000    0.04000    0.02000    0.04000    0.02000
              wtk3       0.00500    0.00500    0.00500    0.00500    0.00500    0.00500
                         0.00500    0.00500    0.00500    0.00500    0.00500    0.00500
                         0.00500    0.00500    0.00500    0.00500    0.00500    0.00500
                         0.00500    0.00500    0.00500    0.00500    0.00500    0.00500
                         0.00500    0.00500    0.00500    0.00500    0.00500    0.00500
                         0.00500    0.00500    0.00500    0.00500    0.00500    0.00500
                         0.00500    0.00500    0.00500    0.00500    0.00500    0.00500
                         0.00500    0.00500    0.00500    0.00500    0.00500    0.00500
                         0.00500    0.00500
              wtk4       0.00500    0.00500    0.00500    0.00500    0.00500    0.00500
                         0.00500    0.00500    0.00500    0.00500    0.00500    0.00500
                         0.00500    0.00500    0.00500    0.00500    0.00500    0.00500
                         0.00500    0.00500    0.00500    0.00500    0.00500    0.00500
                         0.00500    0.00500    0.00500    0.00500    0.00500    0.00500
                         0.00500    0.00500    0.00500    0.00500    0.00500    0.00500
                         0.00500    0.00500    0.00500    0.00500    0.00500    0.00500
                         0.00500    0.00500    0.00500    0.00500    0.00500    0.00500
                         0.00500    0.00500
              wtk5       0.00500    0.00500    0.00500    0.00500    0.00500    0.00500
                         0.00500    0.00500    0.00500    0.00500    0.00500    0.00500
                         0.00500    0.00500    0.00500    0.00500    0.00500    0.00500
                         0.00500    0.00500    0.00500    0.00500    0.00500    0.00500
                         0.00500    0.00500    0.00500    0.00500    0.00500    0.00500
                         0.00500    0.00500    0.00500    0.00500    0.00500    0.00500
                         0.00500    0.00500    0.00500    0.00500    0.00500    0.00500
                         0.00500    0.00500    0.00500    0.00500    0.00500    0.00500
                         0.00500    0.00500
              wtk6       0.00500    0.00500    0.00500    0.00500    0.00500    0.00500
                         0.00500    0.00500    0.00500    0.00500    0.00500    0.00500
                         0.00500    0.00500    0.00500    0.00500    0.00500    0.00500
                         0.00500    0.00500    0.00500    0.00500    0.00500    0.00500
                         0.00500    0.00500    0.00500    0.00500    0.00500    0.00500
                         0.00500    0.00500    0.00500    0.00500    0.00500    0.00500
                         0.00500    0.00500    0.00500    0.00500    0.00500    0.00500
                         0.00500    0.00500    0.00500    0.00500    0.00500    0.00500
                         0.00500    0.00500
                       outvars : Printing only first  50 k-points.
           xangst      2.0538509643E+00  0.0000000000E+00  4.6664635074E+00
                       0.0000000000E+00  2.0538509643E+00  4.6982402675E+00
                       2.0538509643E+00  0.0000000000E+00  7.7691247742E+00
                       0.0000000000E+00  2.0538509643E+00  1.0759148224E+01
                       2.0538509643E+00  2.0538509643E+00  9.2641442120E+00
                       0.0000000000E+00  0.0000000000E+00  9.2641442120E+00
            xcart      3.8812158402E+00  0.0000000000E+00  8.8183380380E+00
                       0.0000000000E+00  3.8812158402E+00  8.8783874121E+00
                       3.8812158402E+00  0.0000000000E+00  1.4681518115E+01
                       0.0000000000E+00  3.8812158402E+00  2.0331843567E+01
                       3.8812158402E+00  3.8812158402E+00  1.7506695416E+01
                       0.0000000000E+00  0.0000000000E+00  1.7506695416E+01
             xred      5.0000000000E-01  0.0000000000E+00  3.0251400000E-01
                       0.0000000000E+00  5.0000000000E-01  3.0457400000E-01
                       5.0000000000E-01  0.0000000000E+00  5.0365100000E-01
                       0.0000000000E+00  5.0000000000E-01  6.9748600000E-01
                       5.0000000000E-01  5.0000000000E-01  6.0056900000E-01
                       0.0000000000E+00  0.0000000000E+00  6.0056900000E-01
            znucl       50.00000   34.00000   30.00000

================================================================================

 chkinp: Checking input parameters for consistency, jdtset=   1.

 chkinp: Checking input parameters for consistency, jdtset=   2.

 chkinp: Checking input parameters for consistency, jdtset=   3.

 chkinp: Checking input parameters for consistency, jdtset=   4.

 chkinp: Checking input parameters for consistency, jdtset=   5.

 chkinp: Checking input parameters for consistency, jdtset=   6.

================================================================================
== DATASET  1 ==================================================================
-   mpi_nproc: 6, omp_nthreads: -1 (-1 if OMP is not activated)


--- !DatasetInfo
iteration_state: {dtset: 1, }
dimensions: {natom: 6, nkpt: 30, mband: 52, nsppol: 1, nspinor: 1, nspden: 1, mpw: 8983, }
cutoff_energies: {ecut:  22.5, pawecutdg:  -1.0, }
electrons: {nelect:   1.02000000E+02, charge:   0.00000000E+00, occopt:   1.00000000E+00, tsmear:   1.00000000E-02, }
meta: {optdriver: 0, ionmov: 0, optcell: 0, iscf: 7, paral_kgb: 0, }
...

 Exchange-correlation functional for the present dataset will be:
  GGA: Perdew-Burke-Ernzerhof functional - ixc=11
 Citation for XC functional:
  J.P.Perdew, K.Burke, M.Ernzerhof, PRL 77, 3865 (1996)

 Real(R)+Recip(G) space primitive vectors, cartesian coordinates (Bohr,Bohr^-1):
 R(1)=  7.7624317  0.0000000  0.0000000  G(1)=  0.1288256  0.0000000  0.0000000
 R(2)=  0.0000000  7.7624317  0.0000000  G(2)=  0.0000000  0.1288256  0.0000000
 R(3)=  0.0000000  0.0000000 29.1501816  G(3)=  0.0000000  0.0000000  0.0343051
 Unit cell volume ucvol=  1.7564543E+03 bohr^3
 Angles (23,13,12)=  9.00000000E+01  9.00000000E+01  9.00000000E+01 degrees

 getcut: wavevector=  0.0000  0.0000  0.0000  ngfft=  36  36 128
         ecut(hartree)=     22.500   => boxcut(ratio)=   2.05642

--- Pseudopotential description ------------------------------------------------
- pspini: atom type   1  psp file is ../../../Psps_for_tests/ATOMICDATA_NC/Sn.psp8
- pspatm: opening atomic psp file    ../../../Psps_for_tests/ATOMICDATA_NC/Sn.psp8
- Sn    ONCVPSP  r_core=  2.27  2.62  1.86
- 50.00000  14.00000    150810                znucl, zion, pspdat
    8   11    2    4       600   0.00000      pspcod,pspxc,lmax,lloc,mmax,r2well
    5.99000000000000    6.50000000000000    0.00000000000000   rchrg,fchrg,qchrg
     nproj     2     2     2
     extension_switch     1
  pspatm : epsatm=   32.65190642
         --- l  ekb(1:nproj) -->
             0    5.462393    0.682281
             1    4.443814    0.825686
             2   -5.382195   -1.704077
 pspatm: atomic psp has been read  and splines computed

- pspini: atom type   2  psp file is ../../../Psps_for_tests/ATOMICDATA_NC/Se.psp8
- pspatm: opening atomic psp file    ../../../Psps_for_tests/ATOMICDATA_NC/Se.psp8
- Se    ONCVPSP  r_core=  1.82  1.50  1.91
- 34.00000  16.00000    150729                znucl, zion, pspdat
    8   11    2    4       600   0.00000      pspcod,pspxc,lmax,lloc,mmax,r2well
    5.99000000000000    5.00000000000000    0.00000000000000   rchrg,fchrg,qchrg
     nproj     2     2     2
     extension_switch     1
  pspatm : epsatm=   29.53325930
         --- l  ekb(1:nproj) -->
             0    8.612261    0.939919
             1    6.984962    1.281898
             2   -9.322521   -3.856218
 pspatm: atomic psp has been read  and splines computed

- pspini: atom type   3  psp file is ../../../Psps_for_tests/ATOMICDATA_NC/Zn.psp8
- pspatm: opening atomic psp file    ../../../Psps_for_tests/ATOMICDATA_NC/Zn.psp8
- Zn    ONCVPSP  r_core=  1.36  1.66  1.85
- 30.00000  20.00000    161102                znucl, zion, pspdat
    8   11    2    4       600   0.00000      pspcod,pspxc,lmax,lloc,mmax,r2well
    5.99000000000000    2.50000000000000    0.00000000000000   rchrg,fchrg,qchrg
     nproj     2     2     2
     extension_switch     1
  pspatm : epsatm=   26.67245340
         --- l  ekb(1:nproj) -->
             0    2.404235   -1.533451
             1   -4.677427   -1.530630
             2   -7.000316   -2.622858
 pspatm: atomic psp has been read  and splines computed

   1.78088523E+04                                ecore*ucvol(ha*bohr**3)
--------------------------------------------------------------------------------

_setup2: Arith. and geom. avg. npw (full set) are    8954.140    8954.134

================================================================================

--- !BeginCycle
iteration_state: {dtset: 1, }
solver: {iscf: 7, nstep: 400, nline: 4, wfoptalg: 0, }
tolerances: {tolwfr: 1.00E-20, }
...

     iter   Etot(hartree)      deltaE(h)  residm     vres2
 ETOT  1  -758.33521129880    -7.583E+02 1.150E+00 2.026E+06
 ETOT  2  -531.95527328517     2.264E+02 1.205E+00 1.122E+07
 ETOT  3  -807.69338871697    -2.757E+02 1.913E+00 1.112E+06
 ETOT  4  -851.40842319510    -4.372E+01 8.271E-01 6.623E+04
 ETOT  5  -854.34307110382    -2.935E+00 6.548E-02 2.942E+04
 ETOT  6  -854.11317960228     2.299E-01 2.663E-02 5.557E+04
 ETOT  7  -854.57440896277    -4.612E-01 1.235E-02 4.997E+04
 ETOT  8  -854.94648714863    -3.721E-01 5.266E-03 4.082E+04
 ETOT  9  -855.23939747387    -2.929E-01 2.993E-03 2.935E+04
 ETOT 10  -856.08515906909    -8.458E-01 1.261E-02 5.782E+02
 ETOT 11  -856.08641073390    -1.252E-03 5.987E-03 7.211E+02
 ETOT 12  -856.09201120903    -5.600E-03 4.928E-03 3.361E+02
 ETOT 13  -856.09313544793    -1.124E-03 1.507E-03 2.522E+02
 ETOT 14  -856.09494778916    -1.812E-03 5.172E-03 1.195E+02
 ETOT 15  -856.09589597131    -9.482E-04 5.692E-04 4.435E+01
 ETOT 16  -856.09587176703     2.420E-05 1.009E-03 3.942E+01
 ETOT 17  -856.09498673964     8.850E-04 2.074E-04 5.869E+01
 ETOT 18  -856.09615140976    -1.165E-03 1.979E-04 9.119E+00
 ETOT 19  -856.09570715982     4.442E-04 9.368E-05 2.406E+01
 ETOT 20  -856.09619736633    -4.902E-04 1.556E-04 1.670E+00
 ETOT 21  -856.09612136948     7.600E-05 1.058E-04 4.382E+00
 ETOT 22  -856.09622462629    -1.033E-04 1.849E-04 1.010E-01
 ETOT 23  -856.09622685319    -2.227E-06 1.292E-04 1.161E-02
 ETOT 24  -856.09622693859    -8.541E-08 1.780E-04 1.515E-03
 ETOT 25  -856.09622698442    -4.583E-08 1.398E-04 8.747E-04
 ETOT 26  -856.09622699563    -1.121E-08 1.516E-04 8.264E-04
 ETOT 27  -856.09622700592    -1.030E-08 1.393E-04 3.606E-04
 ETOT 28  -856.09622701278    -6.860E-09 1.299E-04 6.986E-05
 ETOT 29  -856.09622701429    -1.506E-09 1.271E-04 8.395E-06
 ETOT 30  -856.09622701422     6.708E-11 1.149E-04 7.167E-06
 ETOT 31  -856.09622701455    -3.334E-10 1.069E-04 1.146E-07
 ETOT 32  -856.09622701446     9.902E-11 9.397E-05 4.597E-08
 ETOT 33  -856.09622701434     1.195E-10 8.365E-05 7.067E-09
 ETOT 34  -856.09622701456    -2.251E-10 7.175E-05 8.191E-09
 ETOT 35  -856.09622701447     8.652E-11 6.155E-05 3.601E-09
 ETOT 36  -856.09622701444     3.581E-11 5.171E-05 2.487E-09
 ETOT 37  -856.09622701458    -1.398E-10 4.306E-05 1.617E-09
 ETOT 38  -856.09622701451     6.787E-11 3.556E-05 1.191E-09
 ETOT 39  -856.09622701450     1.148E-11 2.893E-05 5.485E-10
 ETOT 40  -856.09622701444     6.116E-11 2.358E-05 2.933E-11
 ETOT 41  -856.09622701439     5.298E-11 1.886E-05 6.261E-11
 ETOT 42  -856.09622701435     3.797E-11 1.521E-05 1.359E-12
 ETOT 43  -856.09622701451    -1.631E-10 1.202E-05 3.063E-12
 ETOT 44  -856.09622701439     1.186E-10 9.620E-06 1.435E-12
 ETOT 45  -856.09622701444    -4.979E-11 7.540E-06 7.287E-13
 ETOT 46  -856.09622701443     7.958E-12 6.002E-06 1.168E-12
 ETOT 47  -856.09622701446    -2.615E-11 4.679E-06 2.208E-13
 ETOT 48  -856.09622701442     4.206E-11 3.708E-06 2.330E-13
 ETOT 49  -856.09622701445    -3.195E-11 2.881E-06 1.831E-13
 ETOT 50  -856.09622701435     9.936E-11 2.276E-06 3.281E-13
 ETOT 51  -856.09622701444    -9.209E-11 1.765E-06 3.606E-13
 ETOT 52  -856.09622701453    -8.947E-11 1.390E-06 1.340E-13
 ETOT 53  -856.09622701446     7.344E-11 1.077E-06 2.025E-13
 ETOT 54  -856.09622701453    -7.094E-11 8.461E-07 2.854E-13
 ETOT 55  -856.09622701453     2.956E-12 6.554E-07 1.903E-13
 ETOT 56  -856.09622701447     5.343E-11 5.137E-07 6.535E-14
 ETOT 57  -856.09622701443     3.934E-11 3.980E-07 8.140E-14
 ETOT 58  -856.09622701443     6.139E-12 3.113E-07 2.463E-14
 ETOT 59  -856.09622701441     1.660E-11 2.414E-07 3.333E-15
 ETOT 60  -856.09622701443    -2.160E-11 1.883E-07 2.341E-15
 ETOT 61  -856.09622701447    -3.797E-11 1.462E-07 1.744E-15
 ETOT 62  -856.09622701445     1.990E-11 1.138E-07 5.380E-16
 ETOT 63  -856.09622701448    -3.308E-11 8.851E-08 3.378E-16
 ETOT 64  -856.09622701444     4.070E-11 6.871E-08 2.470E-16
 ETOT 65  -856.09622701453    -8.311E-11 5.353E-08 8.939E-17
 ETOT 66  -856.09622701447     6.060E-11 4.145E-08 1.943E-17
 ETOT 67  -856.09622701447    -4.547E-12 3.237E-08 5.928E-18
 ETOT 68  -856.09622701447    -2.728E-12 2.499E-08 6.669E-18
 ETOT 69  -856.09622701447    -1.705E-12 1.956E-08 4.243E-18
 ETOT 70  -856.09622701446     9.891E-12 1.725E-08 1.039E-17
 ETOT 71  -856.09622701446     4.547E-13 1.182E-08 3.559E-18
 ETOT 72  -856.09622701447    -5.002E-12 1.268E-08 3.227E-18
 ETOT 73  -856.09622701447    -3.411E-12 7.141E-09 4.445E-18
 ETOT 74  -856.09622701448    -5.002E-12 9.324E-09 3.052E-18
 ETOT 75  -856.09622701449    -1.285E-11 4.314E-09 4.961E-18
 ETOT 76  -856.09622701449     2.160E-12 6.856E-09 3.719E-18
 ETOT 77  -856.09622701448     4.206E-12 2.606E-09 3.680E-18
 ETOT 78  -856.09622701449    -6.253E-12 5.041E-09 4.334E-18
 ETOT 79  -856.09622701448     1.410E-11 1.574E-09 3.433E-18
 ETOT 80  -856.09622701448    -2.274E-13 3.708E-09 3.323E-18
 ETOT 81  -856.09622701448    -1.819E-12 9.511E-10 3.480E-18
 ETOT 82  -856.09622701448     2.046E-12 2.727E-09 2.520E-18
 ETOT 83  -856.09622701448    -4.547E-13 6.370E-10 3.447E-18
 ETOT 84  -856.09622701448    -3.752E-12 2.006E-09 3.381E-18
 ETOT 85  -856.09622701448     2.728E-12 4.694E-10 2.697E-18
 ETOT 86  -856.09622701448     3.411E-13 1.476E-09 3.080E-18
 ETOT 87  -856.09622701448    -2.387E-12 3.459E-10 3.986E-18
 ETOT 88  -856.09622701448     1.705E-12 1.086E-09 3.211E-18
 ETOT 89  -856.09622701448    -9.095E-13 2.550E-10 3.176E-18
 ETOT 90  -856.09622701448     6.821E-13 7.996E-10 3.255E-18
 ETOT 91  -856.09622701448    -3.183E-12 1.880E-10 2.986E-18
 ETOT 92  -856.09622701448     2.501E-12 5.887E-10 2.885E-18
 ETOT 93  -856.09622701448    -9.095E-13 1.386E-10 2.964E-18
 ETOT 94  -856.09622701448     4.547E-13 4.335E-10 3.223E-18
 ETOT 95  -856.09622701448    -7.958E-13 1.022E-10 2.902E-18
 ETOT 96  -856.09622701448     2.842E-12 3.193E-10 3.289E-18
 ETOT 97  -856.09622701448     9.095E-13 7.542E-11 3.219E-18
 ETOT 98  -856.09622701448    -1.819E-12 2.352E-10 2.915E-18
 ETOT 99  -856.09622701448     1.592E-12 5.564E-11 2.524E-18
 ETOT  100  -856.09622701448    -2.274E-12 1.733E-10 2.558E-18
 ETOT  101  -856.09622701448     1.364E-12 4.105E-11 2.785E-18
 ETOT  102  -856.09622701448    -6.821E-13 1.277E-10 2.680E-18
 ETOT  103  -856.09622701448     0.000E+00 3.030E-11 2.734E-18
 ETOT  104  -856.09622701448     0.000E+00 9.415E-11 2.580E-18
 ETOT  105  -856.09622701448     0.000E+00 2.236E-11 3.237E-18
 ETOT  106  -856.09622701448     2.274E-13 6.942E-11 2.201E-18
 ETOT  107  -856.09622701448     0.000E+00 1.651E-11 2.699E-18
 ETOT  108  -856.09622701448     9.095E-13 5.119E-11 2.532E-18
 ETOT  109  -856.09622701448     3.411E-13 1.219E-11 2.890E-18
 ETOT  110  -856.09622701448     5.684E-13 3.775E-11 2.811E-18
 ETOT  111  -856.09622701448     9.095E-13 8.997E-12 2.581E-18
 ETOT  112  -856.09622701448    -2.274E-12 2.785E-11 2.357E-18
 ETOT  113  -856.09622701448     9.095E-13 6.643E-12 2.539E-18
 ETOT  114  -856.09622701448    -6.821E-13 2.055E-11 2.662E-18
 ETOT  115  -856.09622701448     1.137E-12 4.906E-12 2.451E-18
 ETOT  116  -856.09622701448     0.000E+00 1.516E-11 2.684E-18
 ETOT  117  -856.09622701448    -9.095E-13 3.623E-12 2.733E-18
 ETOT  118  -856.09622701448     2.274E-13 1.119E-11 2.226E-18
 ETOT  119  -856.09622701448    -6.821E-13 2.676E-12 2.402E-18
 ETOT  120  -856.09622701448     1.819E-12 8.258E-12 2.261E-18
 ETOT  121  -856.09622701448    -1.364E-12 1.977E-12 2.285E-18
 ETOT  122  -856.09622701448    -2.274E-13 6.096E-12 2.967E-18
 ETOT  123  -856.09622701448     9.095E-13 1.460E-12 2.939E-18
 ETOT  124  -856.09622701448    -2.274E-13 4.501E-12 2.552E-18
 ETOT  125  -856.09622701448     0.000E+00 1.079E-12 2.940E-18
 ETOT  126  -856.09622701448     1.137E-12 3.323E-12 2.526E-18
 ETOT  127  -856.09622701448    -1.137E-12 7.972E-13 2.528E-18
 ETOT  128  -856.09622701448     3.411E-13 2.454E-12 2.151E-18
 ETOT  129  -856.09622701448     1.137E-13 5.890E-13 2.945E-18
 ETOT  130  -856.09622701448     4.547E-13 1.812E-12 2.537E-18
 ETOT  131  -856.09622701448    -1.137E-13 4.353E-13 2.383E-18
 ETOT  132  -856.09622701448    -3.411E-13 1.339E-12 3.038E-18
 ETOT  133  -856.09622701448     3.411E-13 3.217E-13 2.508E-18
 ETOT  134  -856.09622701448     1.137E-13 9.888E-13 2.932E-18
 ETOT  135  -856.09622701448    -5.684E-13 2.377E-13 3.322E-18
 ETOT  136  -856.09622701448    -7.958E-13 7.305E-13 2.988E-18
 ETOT  137  -856.09622701448     0.000E+00 1.757E-13 2.839E-18
 ETOT  138  -856.09622701448     6.821E-13 5.397E-13 2.947E-18
 ETOT  139  -856.09622701448     2.274E-13 1.298E-13 2.965E-18
 ETOT  140  -856.09622701448    -5.684E-13 3.988E-13 2.682E-18
 ETOT  141  -856.09622701448     5.684E-13 9.597E-14 2.033E-18
 ETOT  142  -856.09622701448     3.411E-13 2.947E-13 2.713E-18
 ETOT  143  -856.09622701448    -1.705E-12 7.094E-14 2.540E-18
 ETOT  144  -856.09622701448     1.137E-12 2.178E-13 2.535E-18
 ETOT  145  -856.09622701448     0.000E+00 5.244E-14 2.242E-18
 ETOT  146  -856.09622701448     6.821E-13 1.609E-13 2.249E-18
 ETOT  147  -856.09622701447     1.137E-12 3.876E-14 2.496E-18
 ETOT  148  -856.09622701448    -1.478E-12 1.189E-13 2.150E-18
 ETOT  149  -856.09622701448    -3.411E-13 2.865E-14 2.462E-18
 ETOT  150  -856.09622701448     4.547E-13 8.791E-14 2.734E-18
 ETOT  151  -856.09622701448    -4.547E-13 2.118E-14 2.548E-18
 ETOT  152  -856.09622701448     6.821E-13 6.498E-14 2.015E-18
 ETOT  153  -856.09622701448    -4.547E-13 1.566E-14 2.566E-18
 ETOT  154  -856.09622701448     4.547E-13 4.803E-14 3.053E-18
 ETOT  155  -856.09622701448    -5.684E-13 1.158E-14 2.383E-18
 ETOT  156  -856.09622701448    -2.274E-13 3.550E-14 2.276E-18
 ETOT  157  -856.09622701448     7.958E-13 8.560E-15 2.427E-18
 ETOT  158  -856.09622701448    -9.095E-13 2.625E-14 2.035E-18
 ETOT  159  -856.09622701448     5.684E-13 6.328E-15 2.065E-18
 ETOT  160  -856.09622701448     3.411E-13 1.940E-14 1.769E-18
 ETOT  161  -856.09622701448     2.274E-13 4.679E-15 2.620E-18
 ETOT  162  -856.09622701448    -2.274E-13 1.435E-14 3.034E-18
 ETOT  163  -856.09622701448     4.547E-13 3.460E-15 2.382E-18
 ETOT  164  -856.09622701448    -1.705E-12 1.061E-14 2.772E-18
 ETOT  165  -856.09622701448     6.821E-13 2.558E-15 3.060E-18
 ETOT  166  -856.09622701448    -4.547E-13 7.842E-15 2.149E-18
 ETOT  167  -856.09622701448     1.251E-12 1.891E-15 2.452E-18
 ETOT  168  -856.09622701448    -7.958E-13 5.798E-15 2.363E-18
 ETOT  169  -856.09622701448     9.095E-13 1.398E-15 2.639E-18
 ETOT  170  -856.09622701447     7.958E-13 4.288E-15 2.690E-18
 ETOT  171  -856.09622701447     0.000E+00 1.034E-15 2.520E-18
 ETOT  172  -856.09622701448    -6.821E-13 3.170E-15 2.761E-18
 ETOT  173  -856.09622701448    -7.958E-13 7.646E-16 2.466E-18
 ETOT  174  -856.09622701448     5.684E-13 2.344E-15 2.473E-18
 ETOT  175  -856.09622701448     2.274E-13 5.654E-16 2.996E-18
 ETOT  176  -856.09622701448    -1.137E-12 1.734E-15 2.199E-18
 ETOT  177  -856.09622701448     2.274E-13 4.181E-16 2.543E-18
 ETOT  178  -856.09622701448     0.000E+00 1.282E-15 2.500E-18
 ETOT  179  -856.09622701448     7.958E-13 3.092E-16 2.484E-18
 ETOT  180  -856.09622701448    -5.684E-13 9.481E-16 2.327E-18
 ETOT  181  -856.09622701448    -9.095E-13 2.286E-16 2.544E-18
 ETOT  182  -856.09622701448     1.364E-12 7.011E-16 2.057E-18
 ETOT  183  -856.09622701448    -2.274E-13 1.691E-16 2.619E-18
 ETOT  184  -856.09622701448    -6.821E-13 5.185E-16 2.141E-18
 ETOT  185  -856.09622701448     1.137E-12 1.250E-16 2.441E-18
 ETOT  186  -856.09622701448     2.274E-13 3.835E-16 2.407E-18
 ETOT  187  -856.09622701448    -7.958E-13 9.245E-17 2.378E-18
 ETOT  188  -856.09622701448     1.137E-13 2.836E-16 2.508E-18
 ETOT  189  -856.09622701448    -1.137E-12 6.837E-17 1.975E-18
 ETOT  190  -856.09622701448     7.958E-13 2.097E-16 2.632E-18
 ETOT  191  -856.09622701448    -1.137E-13 5.056E-17 2.358E-18
 ETOT  192  -856.09622701448     5.684E-13 1.551E-16 2.513E-18
 ETOT  193  -856.09622701448    -3.411E-13 3.739E-17 2.123E-18
 ETOT  194  -856.09622701448     9.095E-13 1.147E-16 2.768E-18
 ETOT  195  -856.09622701447     4.547E-13 2.765E-17 2.606E-18
 ETOT  196  -856.09622701448    -1.137E-12 8.486E-17 2.510E-18
 ETOT  197  -856.09622701447     1.023E-12 2.045E-17 2.675E-18
 ETOT  198  -856.09622701448    -3.411E-13 6.276E-17 2.255E-18
 ETOT  199  -856.09622701448    -2.274E-13 1.512E-17 2.532E-18
 ETOT  200  -856.09622701447     3.411E-13 4.642E-17 2.728E-18
 ETOT  201  -856.09622701447     1.137E-13 1.118E-17 2.239E-18
 ETOT  202  -856.09622701448    -9.095E-13 3.434E-17 2.849E-18
 ETOT  203  -856.09622701447     1.592E-12 8.271E-18 2.538E-18
 ETOT  204  -856.09622701448    -1.478E-12 2.540E-17 2.601E-18
 ETOT  205  -856.09622701448    -1.137E-13 6.116E-18 2.595E-18
 ETOT  206  -856.09622701448    -1.023E-12 1.878E-17 2.412E-18
 ETOT  207  -856.09622701448     5.684E-13 4.523E-18 2.909E-18
 ETOT  208  -856.09622701448    -4.547E-13 1.389E-17 2.147E-18
 ETOT  209  -856.09622701447     1.819E-12 3.345E-18 2.529E-18
 ETOT  210  -856.09622701447     0.000E+00 1.028E-17 2.526E-18
 ETOT  211  -856.09622701447     1.137E-13 2.474E-18 2.423E-18
 ETOT  212  -856.09622701447    -1.137E-13 7.602E-18 2.434E-18
 ETOT  213  -856.09622701448    -9.095E-13 1.830E-18 2.429E-18
 ETOT  214  -856.09622701448    -3.411E-13 5.623E-18 3.217E-18
 ETOT  215  -856.09622701448     2.274E-13 1.353E-18 2.925E-18
 ETOT  216  -856.09622701448     3.411E-13 4.159E-18 2.555E-18
 ETOT  217  -856.09622701447     6.821E-13 1.004E-18 2.679E-18
 ETOT  218  -856.09622701448    -1.478E-12 3.077E-18 2.307E-18
 ETOT  219  -856.09622701448     4.547E-13 7.473E-19 2.705E-18
 ETOT  220  -856.09622701448    -5.684E-13 2.276E-18 2.189E-18
 ETOT  221  -856.09622701448     1.137E-12 5.560E-19 2.147E-18
 ETOT  222  -856.09622701448     0.000E+00 1.683E-18 2.801E-18
 ETOT  223  -856.09622701448    -1.137E-12 4.137E-19 2.708E-18
 ETOT  224  -856.09622701448     1.137E-12 1.245E-18 2.932E-18
 ETOT  225  -856.09622701448    -1.137E-13 3.078E-19 2.299E-18
 ETOT  226  -856.09622701448     3.411E-13 9.211E-19 2.545E-18
 ETOT  227  -856.09622701448    -6.821E-13 2.290E-19 2.693E-18
 ETOT  228  -856.09622701448    -1.137E-13 6.813E-19 2.627E-18
 ETOT  229  -856.09622701448     0.000E+00 1.704E-19 2.106E-18
 ETOT  230  -856.09622701448    -1.137E-13 5.040E-19 2.522E-18
 ETOT  231  -856.09622701447     1.592E-12 1.268E-19 2.950E-18
 ETOT  232  -856.09622701448    -9.095E-13 3.728E-19 2.259E-18
 ETOT  233  -856.09622701447     4.547E-13 9.432E-20 2.161E-18
 ETOT  234  -856.09622701448    -1.592E-12 2.758E-19 2.201E-18
 ETOT  235  -856.09622701448     1.364E-12 7.018E-20 2.445E-18
 ETOT  236  -856.09622701448    -2.274E-13 2.040E-19 2.722E-18
 ETOT  237  -856.09622701448    -6.821E-13 5.222E-20 2.069E-18
 ETOT  238  -856.09622701448     2.274E-13 1.509E-19 2.796E-18
 ETOT  239  -856.09622701448     3.411E-13 3.885E-20 2.808E-18
 ETOT  240  -856.09622701447     1.933E-12 1.116E-19 1.825E-18
 ETOT  241  -856.09622701448    -2.046E-12 2.891E-20 2.486E-18
 ETOT  242  -856.09622701447     5.684E-13 8.258E-20 2.070E-18
 ETOT  243  -856.09622701448    -1.023E-12 2.151E-20 2.542E-18
 ETOT  244  -856.09622701448     5.684E-13 6.109E-20 2.701E-18
 ETOT  245  -856.09622701448     3.411E-13 1.600E-20 2.368E-18
 ETOT  246  -856.09622701447     3.411E-13 4.519E-20 2.977E-18
 ETOT  247  -856.09622701448    -1.023E-12 1.191E-20 1.971E-18
 ETOT  248  -856.09622701448     2.274E-13 3.343E-20 2.571E-18
 ETOT  249  -856.09622701448    -2.274E-13 9.710E-21 2.485E-18

 At SCF step  249   max residual=  9.71E-21 < tolwfr=  1.00E-20 =>converged.

 Cartesian components of stress tensor (hartree/bohr^3)
  sigma(1 1)=  1.32135230E-02  sigma(3 2)=  0.00000000E+00
  sigma(2 2)=  1.32135230E-02  sigma(3 1)=  0.00000000E+00
  sigma(3 3)=  1.32363617E-02  sigma(2 1)=  0.00000000E+00


--- !ResultsGS
iteration_state: {dtset: 1, }
comment   : Summary of ground state results
lattice_vectors:
- [  7.7624317,   0.0000000,   0.0000000, ]
- [  0.0000000,   7.7624317,   0.0000000, ]
- [  0.0000000,   0.0000000,  29.1501816, ]
lattice_lengths: [   7.76243,    7.76243,   29.15018, ]
lattice_angles: [ 90.000,  90.000,  90.000, ] # degrees, (23, 13, 12)
lattice_volume:   1.7564543E+03
convergence: {deltae: -2.274E-13, res2:  2.485E-18, residm:  9.710E-21, diffor: null, }
etotal    :  -8.56096227E+02
entropy   :   0.00000000E+00
fermie    :   4.82269444E-02
cartesian_stress_tensor: # hartree/bohr^3
- [  1.32135230E-02,   0.00000000E+00,   0.00000000E+00, ]
- [  0.00000000E+00,   1.32135230E-02,   0.00000000E+00, ]
- [  0.00000000E+00,   0.00000000E+00,   1.32363617E-02, ]
pressure_GPa:  -3.8898E+02
xred      :
- [  5.0000E-01,   0.0000E+00,   3.0251E-01, Sn]
- [  0.0000E+00,   5.0000E-01,   3.0457E-01, Se]
- [  5.0000E-01,   0.0000E+00,   5.0365E-01, Se]
- [  0.0000E+00,   5.0000E-01,   6.9749E-01, Se]
- [  5.0000E-01,   5.0000E-01,   6.0057E-01, Zn]
- [  0.0000E+00,   0.0000E+00,   6.0057E-01, Zn]
cartesian_forces: # hartree/bohr
- [ -0.00000000E+00,  -0.00000000E+00,  -7.97960299E-03, ]
- [ -0.00000000E+00,  -0.00000000E+00,   4.97255638E-03, ]
- [ -0.00000000E+00,  -0.00000000E+00,   8.23568576E-03, ]
- [ -0.00000000E+00,  -0.00000000E+00,  -1.16458608E-02, ]
- [ -0.00000000E+00,  -0.00000000E+00,   3.20861080E-03, ]
- [ -0.00000000E+00,  -0.00000000E+00,   3.20861080E-03, ]
force_length_stats: {min:   3.20861080E-03, max:   1.16458608E-02, mean:   6.54182125E-03, }
...

 Integrated electronic density in atomic spheres:
 ------------------------------------------------
 Atom  Sphere_radius  Integrated_density
    1        2.00000         10.53997935
    2        2.00000         13.25503582
    3        2.00000         13.24505980
    4        2.00000         13.28206775
    5        2.00000         18.10757724
    6        2.00000         18.10757724
================================================================================

 ----iterations are completed or convergence reached----

 Mean square residual over all n,k,spin=   32.549E-22; max=  97.096E-22
 reduced coordinates (array xred) for    6 atoms
       0.500000000000      0.000000000000      0.302514000000
       0.000000000000      0.500000000000      0.304574000000
       0.500000000000      0.000000000000      0.503651000000
       0.000000000000      0.500000000000      0.697486000000
       0.500000000000      0.500000000000      0.600569000000
       0.000000000000      0.000000000000      0.600569000000
 rms dE/dt=  1.2899E-01; max dE/dt=  2.6418E-01; dE/dt below (all hartree)
    1       0.000000000000      0.000000000000      0.157310933886
    2       0.000000000000      0.000000000000     -0.220246864080
    3       0.000000000000      0.000000000000     -0.315367677962
    4       0.000000000000      0.000000000000      0.264183013605
    5       0.000000000000      0.000000000000     -0.168827529979
    6       0.000000000000      0.000000000000     -0.168827529979

 cartesian coordinates (angstrom) at end:
    1      2.05385096425820     0.00000000000000     4.66646350736065
    2      0.00000000000000     2.05385096425820     4.69824026752766
    3      2.05385096425820     0.00000000000000     7.76912477421110
    4      0.00000000000000     2.05385096425820    10.75914822419772
    5      2.05385096425820     2.05385096425820     9.26414421201027
    6      0.00000000000000     0.00000000000000     9.26414421201027

 cartesian forces (hartree/bohr) at end:
    1     -0.00000000000000    -0.00000000000000    -0.00797960299039
    2     -0.00000000000000    -0.00000000000000     0.00497255638495
    3     -0.00000000000000    -0.00000000000000     0.00823568575996
    4     -0.00000000000000    -0.00000000000000    -0.01164586075739
    5     -0.00000000000000    -0.00000000000000     0.00320861080143
    6     -0.00000000000000    -0.00000000000000     0.00320861080143
 frms,max,avg= 4.1662889E-03 1.1645861E-02   0.000E+00  0.000E+00  2.583E-03 h/b

 cartesian forces (eV/Angstrom) at end:
    1     -0.00000000000000    -0.00000000000000    -0.41032764922088
    2     -0.00000000000000    -0.00000000000000     0.25569910865362
    3     -0.00000000000000    -0.00000000000000     0.42349595358017
    4     -0.00000000000000    -0.00000000000000    -0.59885418779412
    5     -0.00000000000000    -0.00000000000000     0.16499338739060
    6     -0.00000000000000    -0.00000000000000     0.16499338739060
 frms,max,avg= 2.1423917E-01 5.9885419E-01   0.000E+00  0.000E+00  1.328E-01 e/A
 length scales=  7.762431680422  7.762431680422  7.762431680422 bohr
              =  4.107701928516  4.107701928516  4.107701928516 angstroms
 prteigrs : about to open file Cs2TiI6o_DS1_EIG
 Fermi (or HOMO) energy (hartree) =   0.04823   Average Vxc (hartree)=  -0.23388
 Eigenvalues (hartree) for nkpt=  30  k points:
 kpt#   1, nband= 52, wtk=  0.02000, kpt=  0.0500  0.0500  0.1250 (reduced coord)
  -4.84862   -4.84862   -3.08618   -3.08594   -3.08352   -3.08346   -3.08282   -3.08243
  -1.80035   -1.79904   -1.79794   -1.79787   -1.79722   -1.79361   -1.79331   -1.79179
  -1.78930   -1.78871   -1.72788   -1.72705   -1.72261   -1.72159   -1.72126   -0.76300
  -0.76029   -0.76019   -0.75671   -0.75652   -0.52193   -0.49568   -0.43895   -0.31114
  -0.31033   -0.30878   -0.30828   -0.30771   -0.29685   -0.29486   -0.29361   -0.28912
  -0.28838   -0.20394   -0.15686   -0.12327   -0.12158   -0.08505   -0.06118   -0.05593
  -0.04840   -0.04479   -0.03143    0.02977
 prteigrs : prtvol=0 or 1, do not print more k-points.


--- !EnergyTerms
iteration_state     : {dtset: 1, }
comment             : Components of total free energy in Hartree
kinetic             :  4.51778364237746E+02
hartree             :  9.53588234321824E+02
xc                  : -1.37860499409228E+02
Ewald energy        :  2.40791015068043E+02
psp_core            :  1.01390925080127E+01
local_psp           : -2.10998030135724E+03
non_local_psp       : -2.64513747450130E+02
VdWaals_dft_d       : -3.83849335082636E-02
total_energy        : -8.56096227014476E+02
total_energy_eV     : -2.32955630543886E+04
band_energy         : -1.28130412094406E+02
...


 Cartesian components of stress tensor (hartree/bohr^3)
  sigma(1 1)=  1.32135230E-02  sigma(3 2)=  0.00000000E+00
  sigma(2 2)=  1.32135230E-02  sigma(3 1)=  0.00000000E+00
  sigma(3 3)=  1.32363617E-02  sigma(2 1)=  0.00000000E+00

-Cartesian components of stress tensor (GPa)         [Pressure= -3.8898E+02 GPa]
- sigma(1 1)=  3.88755202E+02  sigma(3 2)=  0.00000000E+00
- sigma(2 2)=  3.88755202E+02  sigma(3 1)=  0.00000000E+00
- sigma(3 3)=  3.89427142E+02  sigma(2 1)=  0.00000000E+00

================================================================================
== DATASET  2 ==================================================================
-   mpi_nproc: 6, omp_nthreads: -1 (-1 if OMP is not activated)


--- !DatasetInfo
iteration_state: {dtset: 2, }
dimensions: {natom: 6, nkpt: 30, mband: 120, nsppol: 1, nspinor: 1, nspden: 1, mpw: 8983, }
cutoff_energies: {ecut:  22.5, pawecutdg:  -1.0, }
electrons: {nelect:   1.02000000E+02, charge:   0.00000000E+00, occopt:   1.00000000E+00, tsmear:   1.00000000E-02, }
meta: {optdriver: 0, ionmov: 0, optcell: 0, iscf: -2, paral_kgb: 0, }
...

 mkfilename : getwfk/=0, take file _WFK from output of DATASET   1.

 mkfilename : getden/=0, take file _DEN from output of DATASET   1.

 Exchange-correlation functional for the present dataset will be:
  GGA: Perdew-Burke-Ernzerhof functional - ixc=11
 Citation for XC functional:
  J.P.Perdew, K.Burke, M.Ernzerhof, PRL 77, 3865 (1996)

 Real(R)+Recip(G) space primitive vectors, cartesian coordinates (Bohr,Bohr^-1):
 R(1)=  7.7624317  0.0000000  0.0000000  G(1)=  0.1288256  0.0000000  0.0000000
 R(2)=  0.0000000  7.7624317  0.0000000  G(2)=  0.0000000  0.1288256  0.0000000
 R(3)=  0.0000000  0.0000000 29.1501816  G(3)=  0.0000000  0.0000000  0.0343051
 Unit cell volume ucvol=  1.7564543E+03 bohr^3
 Angles (23,13,12)=  9.00000000E+01  9.00000000E+01  9.00000000E+01 degrees

 getcut: wavevector=  0.0000  0.0000  0.0000  ngfft=  36  36 128
         ecut(hartree)=     22.500   => boxcut(ratio)=   2.05642
--------------------------------------------------------------------------------

-inwffil : will read wavefunctions from disk file Cs2TiI6o_DS1_WFK

================================================================================
 prteigrs : about to open file Cs2TiI6o_DS2_EIG
 Non-SCF case, kpt    1 (  0.05000  0.05000  0.12500), residuals and eigenvalues=
  6.42E-22  3.63E-21  2.02E-21  2.02E-21  2.30E-21  1.09E-21  1.11E-21  2.31E-21
  4.13E-21  4.26E-21  4.63E-21  3.54E-21  2.24E-21  1.40E-21  1.24E-21  1.13E-21
  1.76E-21  2.00E-21  3.00E-21  2.97E-21  2.04E-21  1.12E-21  1.11E-21  3.38E-21
  2.55E-21  2.59E-21  3.19E-21  3.31E-21  1.08E-21  2.26E-21  5.29E-22  6.06E-21
  2.80E-21  2.80E-21  3.15E-21  2.71E-21  2.58E-21  2.60E-21  3.28E-21  6.62E-21
  6.71E-21  1.47E-21  3.35E-21  3.26E-21  3.33E-21  1.38E-21  2.80E-21  6.58E-21
  6.03E-21  6.31E-21  9.02E-21  7.96E-21  8.98E-21  4.50E-21  4.46E-21  9.95E-21
  7.73E-21  7.12E-21  6.73E-21  8.58E-21  3.82E-21  6.10E-21  6.32E-21  4.13E-21
  7.66E-21  7.76E-21  4.69E-21  5.70E-21  5.22E-21  8.01E-21  3.53E-21  8.17E-21
  6.94E-21  8.62E-21  2.28E-21  2.06E-21  4.89E-21  8.65E-21  6.40E-21  2.84E-21
  3.58E-21  8.26E-21  2.68E-21  5.91E-21  4.46E-21  3.80E-21  6.23E-21  7.48E-21
  5.22E-21  3.63E-21  3.52E-21  3.75E-21  4.03E-21  5.44E-21  3.64E-21  2.52E-21
  5.25E-21  6.89E-21  4.35E-21  6.47E-21  7.19E-21  8.95E-21  7.57E-21  6.58E-21
  5.35E-21  3.99E-21  7.22E-21  5.31E-21  7.82E-21  7.47E-21  7.63E-21  4.66E-21
  7.56E-21  5.56E-21  8.63E-21  7.58E-21  8.39E-21  5.67E-21  3.79E-19  2.08E-09
 -4.8486E+00 -4.8486E+00 -3.0862E+00 -3.0859E+00 -3.0835E+00 -3.0835E+00
 -3.0828E+00 -3.0824E+00 -1.8004E+00 -1.7990E+00 -1.7979E+00 -1.7979E+00
 -1.7972E+00 -1.7936E+00 -1.7933E+00 -1.7918E+00 -1.7893E+00 -1.7887E+00
 -1.7279E+00 -1.7270E+00 -1.7226E+00 -1.7216E+00 -1.7213E+00 -7.6300E-01
 -7.6029E-01 -7.6019E-01 -7.5671E-01 -7.5652E-01 -5.2193E-01 -4.9568E-01
 -4.3895E-01 -3.1114E-01 -3.1033E-01 -3.0878E-01 -3.0828E-01 -3.0771E-01
 -2.9685E-01 -2.9486E-01 -2.9361E-01 -2.8912E-01 -2.8838E-01 -2.0394E-01
 -1.5686E-01 -1.2327E-01 -1.2158E-01 -8.5047E-02 -6.1179E-02 -5.5928E-02
 -4.8397E-02 -4.4786E-02 -3.1433E-02  2.9771E-02  5.5693E-02  8.3257E-02
  1.2999E-01  1.7026E-01  1.7238E-01  1.8119E-01  1.8391E-01  2.0995E-01
  2.1878E-01  2.3161E-01  2.5418E-01  2.7912E-01  3.0693E-01  3.1500E-01
  3.2548E-01  3.4911E-01  3.6071E-01  3.6973E-01  3.9498E-01  4.1041E-01
  4.2554E-01  4.2661E-01  4.3971E-01  4.4966E-01  4.5959E-01  4.6511E-01
  4.7147E-01  4.7223E-01  4.8250E-01  4.8769E-01  5.0072E-01  5.0502E-01
  5.1367E-01  5.2766E-01  5.3084E-01  5.4745E-01  5.5249E-01  5.5843E-01
  5.6713E-01  5.7579E-01  5.9027E-01  6.0119E-01  6.0967E-01  6.3268E-01
  6.3692E-01  6.4465E-01  6.6253E-01  6.6629E-01  6.7123E-01  6.7958E-01
  6.9007E-01  7.0521E-01  7.1260E-01  7.2530E-01  7.3632E-01  7.5374E-01
  7.6084E-01  7.6396E-01  7.7886E-01  7.9145E-01  7.9416E-01  8.1122E-01
  8.1575E-01  8.1920E-01  8.3148E-01  8.4072E-01  8.4188E-01  8.4989E-01
  prteigrs : nnsclo,ikpt=  200    1 max resid (incl. the buffer)=  2.07889E-09
 prteigrs : prtvol=0 or 1, do not print more k-points.

  prteigrs : nnsclo,ikpt=  200    2 max resid (incl. the buffer)=  8.00196E-11
  prteigrs : nnsclo,ikpt=  200    3 max resid (incl. the buffer)=  4.44711E-14
  prteigrs : nnsclo,ikpt=  200    4 max resid (incl. the buffer)=  4.51441E-07
  prteigrs : nnsclo,ikpt=  200    5 max resid (incl. the buffer)=  5.17532E-11
  prteigrs : nnsclo,ikpt=  200    6 max resid (incl. the buffer)=  1.91156E-14
  prteigrs : nnsclo,ikpt=  200    7 max resid (incl. the buffer)=  2.10374E-11
  prteigrs : nnsclo,ikpt=  200    8 max resid (incl. the buffer)=  9.40172E-08
  prteigrs : nnsclo,ikpt=  200    9 max resid (incl. the buffer)=  3.09832E-06
  prteigrs : nnsclo,ikpt=  200   10 max resid (incl. the buffer)=  5.25068E-14
  prteigrs : nnsclo,ikpt=  200   11 max resid (incl. the buffer)=  1.97313E-11
  prteigrs : nnsclo,ikpt=  200   12 max resid (incl. the buffer)=  3.50439E-11
  prteigrs : nnsclo,ikpt=  200   13 max resid (incl. the buffer)=  6.24226E-16
  prteigrs : nnsclo,ikpt=  200   14 max resid (incl. the buffer)=  1.45568E-12
  prteigrs : nnsclo,ikpt=  200   15 max resid (incl. the buffer)=  2.11202E-09
  prteigrs : nnsclo,ikpt=  200   16 max resid (incl. the buffer)=  1.30584E-08
  prteigrs : nnsclo,ikpt=  200   17 max resid (incl. the buffer)=  2.50856E-09
  prteigrs : nnsclo,ikpt=  200   18 max resid (incl. the buffer)=  5.29538E-08
  prteigrs : nnsclo,ikpt=  200   19 max resid (incl. the buffer)=  6.70748E-12
  prteigrs : nnsclo,ikpt=  200   20 max resid (incl. the buffer)=  1.03108E-13
  prteigrs : nnsclo,ikpt=  200   21 max resid (incl. the buffer)=  8.86517E-13
  prteigrs : nnsclo,ikpt=  200   22 max resid (incl. the buffer)=  6.68969E-10
  prteigrs : nnsclo,ikpt=  200   23 max resid (incl. the buffer)=  6.37407E-10
  prteigrs : nnsclo,ikpt=  200   24 max resid (incl. the buffer)=  8.19012E-11
  prteigrs : nnsclo,ikpt=  200   25 max resid (incl. the buffer)=  1.09746E-07
  prteigrs : nnsclo,ikpt=  200   26 max resid (incl. the buffer)=  7.45430E-09
  prteigrs : nnsclo,ikpt=  200   27 max resid (incl. the buffer)=  1.13046E-10
  prteigrs : nnsclo,ikpt=  200   28 max resid (incl. the buffer)=  9.13702E-13
  prteigrs : nnsclo,ikpt=  200   29 max resid (incl. the buffer)=  1.10073E-11
  prteigrs : nnsclo,ikpt=  200   30 max resid (incl. the buffer)=  9.02935E-10


--- !ResultsGS
iteration_state: {dtset: 2, }
comment   : Summary of ground state results
lattice_vectors:
- [  7.7624317,   0.0000000,   0.0000000, ]
- [  0.0000000,   7.7624317,   0.0000000, ]
- [  0.0000000,   0.0000000,  29.1501816, ]
lattice_lengths: [   7.76243,    7.76243,   29.15018, ]
lattice_angles: [ 90.000,  90.000,  90.000, ] # degrees, (23, 13, 12)
lattice_volume:   1.7564543E+03
convergence: {deltae:  0.000E+00, res2:  0.000E+00, residm:  9.989E-21, diffor:  0.000E+00, }
etotal    :  -8.56096227E+02
entropy   :   0.00000000E+00
fermie    :   4.82269444E-02
cartesian_stress_tensor: null
pressure_GPa: null
xred      :
- [  5.0000E-01,   0.0000E+00,   3.0251E-01, Sn]
- [  0.0000E+00,   5.0000E-01,   3.0457E-01, Se]
- [  5.0000E-01,   0.0000E+00,   5.0365E-01, Se]
- [  0.0000E+00,   5.0000E-01,   6.9749E-01, Se]
- [  5.0000E-01,   5.0000E-01,   6.0057E-01, Zn]
- [  0.0000E+00,   0.0000E+00,   6.0057E-01, Zn]
cartesian_forces: null
force_length_stats: {min: null, max: null, mean: null, }
...

 Integrated electronic density in atomic spheres:
 ------------------------------------------------
 Atom  Sphere_radius  Integrated_density
    1        2.00000         10.53997935
    2        2.00000         13.25503582
    3        2.00000         13.24505980
    4        2.00000         13.28206775
    5        2.00000         18.10757724
    6        2.00000         18.10757724
================================================================================

 ----iterations are completed or convergence reached----

 Mean square residual over all n,k,spin=   46.343E-22; max=  99.894E-22
 reduced coordinates (array xred) for    6 atoms
       0.500000000000      0.000000000000      0.302514000000
       0.000000000000      0.500000000000      0.304574000000
       0.500000000000      0.000000000000      0.503651000000
       0.000000000000      0.500000000000      0.697486000000
       0.500000000000      0.500000000000      0.600569000000
       0.000000000000      0.000000000000      0.600569000000

 cartesian coordinates (angstrom) at end:
    1      2.05385096425820     0.00000000000000     4.66646350736065
    2      0.00000000000000     2.05385096425820     4.69824026752766
    3      2.05385096425820     0.00000000000000     7.76912477421110
    4      0.00000000000000     2.05385096425820    10.75914822419772
    5      2.05385096425820     2.05385096425820     9.26414421201027
    6      0.00000000000000     0.00000000000000     9.26414421201027
 length scales=  7.762431680422  7.762431680422  7.762431680422 bohr
              =  4.107701928516  4.107701928516  4.107701928516 angstroms
 prteigrs : about to open file Cs2TiI6o_DS2_EIG
 Eigenvalues (hartree) for nkpt=  30  k points:
 kpt#   1, nband=120, wtk=  0.02000, kpt=  0.0500  0.0500  0.1250 (reduced coord)
  -4.84862   -4.84862   -3.08618   -3.08594   -3.08352   -3.08346   -3.08282   -3.08243
  -1.80035   -1.79904   -1.79794   -1.79787   -1.79722   -1.79361   -1.79331   -1.79179
[...]
            natom           6
            nband1         52
            nband2        120
            nband3        120
            nband4        120
            nband5        120
            nband6        120
           nbdbuf1          0
           nbdbuf2          2
           nbdbuf3          2
           nbdbuf4          2
           nbdbuf5          2
           nbdbuf6          2
           ndtset           6
            ngfft          36      36     128
             nkpt1         30
             nkpt2         30
             nkpt3        200
             nkpt4        200
             nkpt5        200
             nkpt6        200
            nline1          4
            nline2          4
            nline3          4
            nline4          0
            nline5          0
            nline6          0
             nqpt1          0
             nqpt2          0
             nqpt3          0
             nqpt4          1
             nqpt5          1
             nqpt6          1
            nstep1        400
            nstep2        200
            nstep3        200
            nstep4          1
            nstep5          1
            nstep6          1
             nsym           8
           ntypat           3
              occ1     2.000000  2.000000  2.000000  2.000000  2.000000  2.000000
                       2.000000  2.000000  2.000000  2.000000  2.000000  2.000000
                       2.000000  2.000000  2.000000  2.000000  2.000000  2.000000
                       2.000000  2.000000  2.000000  2.000000  2.000000  2.000000
                       2.000000  2.000000  2.000000  2.000000  2.000000  2.000000
                       2.000000  2.000000  2.000000  2.000000  2.000000  2.000000
                       2.000000  2.000000  2.000000  2.000000  2.000000  2.000000
                       2.000000  2.000000  2.000000  2.000000  2.000000  2.000000
                       2.000000  2.000000  2.000000  0.000000
              occ4     2.000000  2.000000  2.000000  2.000000  2.000000  2.000000
                       2.000000  2.000000  2.000000  2.000000  2.000000  2.000000
                       2.000000  2.000000  2.000000  2.000000  2.000000  2.000000
                       2.000000  2.000000  2.000000  2.000000  2.000000  2.000000
                       2.000000  2.000000  2.000000  2.000000  2.000000  2.000000
                       2.000000  2.000000  2.000000  2.000000  2.000000  2.000000
                       2.000000  2.000000  2.000000  2.000000  2.000000  2.000000
                       2.000000  2.000000  2.000000  2.000000  2.000000  2.000000
                       2.000000  2.000000  2.000000  0.000000  0.000000  0.000000
                       0.000000  0.000000  0.000000  0.000000  0.000000  0.000000
                       0.000000  0.000000  0.000000  0.000000  0.000000  0.000000
                       0.000000  0.000000  0.000000  0.000000  0.000000  0.000000
                       0.000000  0.000000  0.000000  0.000000  0.000000  0.000000
                       0.000000  0.000000  0.000000  0.000000  0.000000  0.000000
                       0.000000  0.000000  0.000000  0.000000  0.000000  0.000000
                       0.000000  0.000000  0.000000  0.000000  0.000000  0.000000
                       0.000000  0.000000  0.000000  0.000000  0.000000  0.000000
                       0.000000  0.000000  0.000000  0.000000  0.000000  0.000000
                       0.000000  0.000000  0.000000  0.000000  0.000000  0.000000
                       0.000000  0.000000  0.000000  0.000000  0.000000  0.000000
              occ5     2.000000  2.000000  2.000000  2.000000  2.000000  2.000000
                       2.000000  2.000000  2.000000  2.000000  2.000000  2.000000
                       2.000000  2.000000  2.000000  2.000000  2.000000  2.000000
                       2.000000  2.000000  2.000000  2.000000  2.000000  2.000000
                       2.000000  2.000000  2.000000  2.000000  2.000000  2.000000
                       2.000000  2.000000  2.000000  2.000000  2.000000  2.000000
                       2.000000  2.000000  2.000000  2.000000  2.000000  2.000000
                       2.000000  2.000000  2.000000  2.000000  2.000000  2.000000
                       2.000000  2.000000  2.000000  0.000000  0.000000  0.000000
                       0.000000  0.000000  0.000000  0.000000  0.000000  0.000000
                       0.000000  0.000000  0.000000  0.000000  0.000000  0.000000
                       0.000000  0.000000  0.000000  0.000000  0.000000  0.000000
                       0.000000  0.000000  0.000000  0.000000  0.000000  0.000000
                       0.000000  0.000000  0.000000  0.000000  0.000000  0.000000
                       0.000000  0.000000  0.000000  0.000000  0.000000  0.000000
                       0.000000  0.000000  0.000000  0.000000  0.000000  0.000000
                       0.000000  0.000000  0.000000  0.000000  0.000000  0.000000
                       0.000000  0.000000  0.000000  0.000000  0.000000  0.000000
                       0.000000  0.000000  0.000000  0.000000  0.000000  0.000000
                       0.000000  0.000000  0.000000  0.000000  0.000000  0.000000
              occ6     2.000000  2.000000  2.000000  2.000000  2.000000  2.000000
                       2.000000  2.000000  2.000000  2.000000  2.000000  2.000000
                       2.000000  2.000000  2.000000  2.000000  2.000000  2.000000
                       2.000000  2.000000  2.000000  2.000000  2.000000  2.000000
                       2.000000  2.000000  2.000000  2.000000  2.000000  2.000000
                       2.000000  2.000000  2.000000  2.000000  2.000000  2.000000
                       2.000000  2.000000  2.000000  2.000000  2.000000  2.000000
                       2.000000  2.000000  2.000000  2.000000  2.000000  2.000000
                       2.000000  2.000000  2.000000  0.000000  0.000000  0.000000
                       0.000000  0.000000  0.000000  0.000000  0.000000  0.000000
                       0.000000  0.000000  0.000000  0.000000  0.000000  0.000000
                       0.000000  0.000000  0.000000  0.000000  0.000000  0.000000
                       0.000000  0.000000  0.000000  0.000000  0.000000  0.000000
                       0.000000  0.000000  0.000000  0.000000  0.000000  0.000000
                       0.000000  0.000000  0.000000  0.000000  0.000000  0.000000
                       0.000000  0.000000  0.000000  0.000000  0.000000  0.000000
                       0.000000  0.000000  0.000000  0.000000  0.000000  0.000000
                       0.000000  0.000000  0.000000  0.000000  0.000000  0.000000
                       0.000000  0.000000  0.000000  0.000000  0.000000  0.000000
                       0.000000  0.000000  0.000000  0.000000  0.000000  0.000000
        optdriver1          0
        optdriver2          0
        optdriver3          0
        optdriver4          1
        optdriver5          1
        optdriver6          1
            prtwf1          1
            prtwf2          1
            prtwf3          1
            prtwf4          3
            prtwf5          3
            prtwf6          3
            rfdir1          0       0       0
            rfdir2          0       0       0
            rfdir3          0       0       0
            rfdir4          1       0       0
            rfdir5          0       1       0
            rfdir6          0       0       1
           rfelfd1          0
           rfelfd2          0
           rfelfd3          0
           rfelfd4          2
           rfelfd5          2
           rfelfd6          2
            rprim      1.0000000000E+00  0.0000000000E+00  0.0000000000E+00
                       0.0000000000E+00  1.0000000000E+00  0.0000000000E+00
                       0.0000000000E+00  0.0000000000E+00  3.7552899407E+00
           shiftk      5.00000000E-01  5.00000000E-01  5.00000000E-01
          spgroup          99
           strten1     1.3213522952E-02  1.3213522952E-02  1.3236361749E-02
                       0.0000000000E+00  0.0000000000E+00  0.0000000000E+00
           symrel      1  0  0   0  1  0   0  0  1       1  0  0   0 -1  0   0  0  1
                      -1  0  0   0 -1  0   0  0  1      -1  0  0   0  1  0   0  0  1
                       0  1  0   1  0  0   0  0  1       0  1  0  -1  0  0   0  0  1
                       0 -1  0  -1  0  0   0  0  1       0 -1  0   1  0  0   0  0  1
            tnons      0.0000000  0.0000000  0.0000000     0.0000000  0.0000000  0.0000000
                       0.0000000  0.0000000  0.0000000     0.0000000  0.0000000  0.0000000
                       0.5000000  0.5000000  0.0000000     0.5000000  0.5000000  0.0000000
                       0.5000000  0.5000000  0.0000000     0.5000000  0.5000000  0.0000000
           tolwfr      1.00000000E-20
            typat      1  2  2  2  3  3
           vdw_xc           5
              wtk1       0.02000    0.04000    0.04000    0.04000    0.04000    0.02000
                         0.04000    0.04000    0.04000    0.02000    0.04000    0.04000
                         0.02000    0.04000    0.02000    0.02000    0.04000    0.04000
                         0.04000    0.04000    0.02000    0.04000    0.04000    0.04000
                         0.02000    0.04000    0.04000    0.02000    0.04000    0.02000
              wtk2       0.02000    0.04000    0.04000    0.04000    0.04000    0.02000
                         0.04000    0.04000    0.04000    0.02000    0.04000    0.04000
                         0.02000    0.04000    0.02000    0.02000    0.04000    0.04000
                         0.04000    0.04000    0.02000    0.04000    0.04000    0.04000
                         0.02000    0.04000    0.04000    0.02000    0.04000    0.02000
              wtk3       0.00500    0.00500    0.00500    0.00500    0.00500    0.00500
                         0.00500    0.00500    0.00500    0.00500    0.00500    0.00500
                         0.00500    0.00500    0.00500    0.00500    0.00500    0.00500
                         0.00500    0.00500    0.00500    0.00500    0.00500    0.00500
                         0.00500    0.00500    0.00500    0.00500    0.00500    0.00500
                         0.00500    0.00500    0.00500    0.00500    0.00500    0.00500
                         0.00500    0.00500    0.00500    0.00500    0.00500    0.00500
                         0.00500    0.00500    0.00500    0.00500    0.00500    0.00500
                         0.00500    0.00500
              wtk4       0.00500    0.00500    0.00500    0.00500    0.00500    0.00500
                         0.00500    0.00500    0.00500    0.00500    0.00500    0.00500
                         0.00500    0.00500    0.00500    0.00500    0.00500    0.00500
                         0.00500    0.00500    0.00500    0.00500    0.00500    0.00500
                         0.00500    0.00500    0.00500    0.00500    0.00500    0.00500
                         0.00500    0.00500    0.00500    0.00500    0.00500    0.00500
                         0.00500    0.00500    0.00500    0.00500    0.00500    0.00500
                         0.00500    0.00500    0.00500    0.00500    0.00500    0.00500
                         0.00500    0.00500
              wtk5       0.00500    0.00500    0.00500    0.00500    0.00500    0.00500
                         0.00500    0.00500    0.00500    0.00500    0.00500    0.00500
                         0.00500    0.00500    0.00500    0.00500    0.00500    0.00500
                         0.00500    0.00500    0.00500    0.00500    0.00500    0.00500
                         0.00500    0.00500    0.00500    0.00500    0.00500    0.00500
                         0.00500    0.00500    0.00500    0.00500    0.00500    0.00500
                         0.00500    0.00500    0.00500    0.00500    0.00500    0.00500
                         0.00500    0.00500    0.00500    0.00500    0.00500    0.00500
                         0.00500    0.00500
              wtk6       0.00500    0.00500    0.00500    0.00500    0.00500    0.00500
                         0.00500    0.00500    0.00500    0.00500    0.00500    0.00500
                         0.00500    0.00500    0.00500    0.00500    0.00500    0.00500
                         0.00500    0.00500    0.00500    0.00500    0.00500    0.00500
                         0.00500    0.00500    0.00500    0.00500    0.00500    0.00500
                         0.00500    0.00500    0.00500    0.00500    0.00500    0.00500
                         0.00500    0.00500    0.00500    0.00500    0.00500    0.00500
                         0.00500    0.00500    0.00500    0.00500    0.00500    0.00500
                         0.00500    0.00500
                       outvars : Printing only first  50 k-points.
           xangst      2.0538509643E+00  0.0000000000E+00  4.6664635074E+00
                       0.0000000000E+00  2.0538509643E+00  4.6982402675E+00
                       2.0538509643E+00  0.0000000000E+00  7.7691247742E+00
                       0.0000000000E+00  2.0538509643E+00  1.0759148224E+01
                       2.0538509643E+00  2.0538509643E+00  9.2641442120E+00
                       0.0000000000E+00  0.0000000000E+00  9.2641442120E+00
            xcart      3.8812158402E+00  0.0000000000E+00  8.8183380380E+00
                       0.0000000000E+00  3.8812158402E+00  8.8783874121E+00
                       3.8812158402E+00  0.0000000000E+00  1.4681518115E+01
                       0.0000000000E+00  3.8812158402E+00  2.0331843567E+01
                       3.8812158402E+00  3.8812158402E+00  1.7506695416E+01
                       0.0000000000E+00  0.0000000000E+00  1.7506695416E+01
             xred      5.0000000000E-01  0.0000000000E+00  3.0251400000E-01
                       0.0000000000E+00  5.0000000000E-01  3.0457400000E-01
                       5.0000000000E-01  0.0000000000E+00  5.0365100000E-01
                       0.0000000000E+00  5.0000000000E-01  6.9748600000E-01
                       5.0000000000E-01  5.0000000000E-01  6.0056900000E-01
                       0.0000000000E+00  0.0000000000E+00  6.0056900000E-01
            znucl       50.00000   34.00000   30.00000

================================================================================


- Timing analysis has been suppressed with timopt=0



================================================================================

 Suggested references for the acknowledgment of ABINIT usage.

 The users of ABINIT have little formal obligations with respect to the ABINIT group
 (those specified in the GNU General Public License, http://www.gnu.org/copyleft/gpl.txt).
 However, it is common practice in the scientific literature,
 to acknowledge the efforts of people that have made the research possible.
 In this spirit, please find below suggested citations of work written by ABINIT developers,
 corresponding to implementations inside of ABINIT that you have used in the present run.
 Note also that it will be of great value to readers of publications presenting these results,
 to read papers enabling them to understand the theoretical formalism and details
 of the ABINIT implementation.
 For information on why they are suggested, see also https://docs.abinit.org/theory/acknowledgments.
-
- [1] The Abinit project: Impact, environment and recent developments.
- Computer Phys. Comm. 248, 107042 (2020).
- X.Gonze, B. Amadon, G. Antonius, F.Arnardi, L.Baguet, J.-M.Beuken,
- J.Bieder, F.Bottin, J.Bouchet, E.Bousquet, N.Brouwer, F.Bruneval,
- G.Brunin, T.Cavignac, J.-B. Charraud, Wei Chen, M.Cote, S.Cottenier,
- J.Denier, G.Geneste, Ph.Ghosez, M.Giantomassi, Y.Gillet, O.Gingras,
- D.R.Hamann, G.Hautier, Xu He, N.Helbig, N.Holzwarth, Y.Jia, F.Jollet,
- W.Lafargue-Dit-Hauret, K.Lejaeghere, M.A.L.Marques, A.Martin, C.Martins,
- H.P.C. Miranda, F.Naccarato, K. Persson, G.Petretto, V.Planes, Y.Pouillon,
- S.Prokhorenko, F.Ricci, G.-M.Rignanese, A.H.Romero, M.M.Schmitt, M.Torrent,
- M.J.van Setten, B.Van Troeye, M.J.Verstraete, G.Zerah and J.W.Zwanzig
- Comment: the fifth generic paper describing the ABINIT project.
- Note that a version of this paper, that is not formatted for Computer Phys. Comm. 
- is available at https://www.abinit.org/sites/default/files/ABINIT20.pdf .
- The licence allows the authors to put it on the Web.
- DOI and bibtex: see https://docs.abinit.org/theory/bibliography/#gonze2020
-
- [2] First-principles responses of solids to atomic displacements and homogeneous electric fields:,
- implementation of a conjugate-gradient algorithm. X. Gonze, Phys. Rev. B55, 10337 (1997).
- Comment: Non-vanishing rfphon and/or rfelfd, in the norm-conserving case.
- DOI and bibtex: see https://docs.abinit.org/theory/bibliography/#gonze1997
-
- [3] Dynamical matrices, Born effective charges, dielectric permittivity tensors, and ,
- interatomic force constants from density-functional perturbation theory,
- X. Gonze and C. Lee, Phys. Rev. B55, 10355 (1997).
- Comment: Non-vanishing rfphon and/or rfelfd, in the norm-conserving case.
- DOI and bibtex: see https://docs.abinit.org/theory/bibliography/#gonze1997a
-
- [4] Optimized norm-conserving Vanderbilt pseudopotentials.
- D.R. Hamann, Phys. Rev. B 88, 085117 (2013).
- Comment: Some pseudopotential generated using the ONCVPSP code were used.
- DOI and bibtex: see https://docs.abinit.org/theory/bibliography/#hamann2013
-
- [5] ABINIT: Overview, and focus on selected capabilities
- J. Chem. Phys. 152, 124102 (2020).
- A. Romero, D.C. Allan, B. Amadon, G. Antonius, T. Applencourt, L.Baguet,
- J.Bieder, F.Bottin, J.Bouchet, E.Bousquet, F.Bruneval,
- G.Brunin, D.Caliste, M.Cote,
- J.Denier, C. Dreyer, Ph.Ghosez, M.Giantomassi, Y.Gillet, O.Gingras,
- D.R.Hamann, G.Hautier, F.Jollet, G. Jomard,
- A.Martin, 
- H.P.C. Miranda, F.Naccarato, G.Petretto, N.A. Pike, V.Planes,
- S.Prokhorenko, T. Rangel, F.Ricci, G.-M.Rignanese, M.Royo, M.Stengel, M.Torrent,
- M.J.van Setten, B.Van Troeye, M.J.Verstraete, J.Wiktor, J.W.Zwanziger, and X.Gonze.
- Comment: a global overview of ABINIT, with focus on selected capabilities .
- Note that a version of this paper, that is not formatted for J. Chem. Phys 
- is available at https://www.abinit.org/sites/default/files/ABINIT20_JPC.pdf .
- The licence allows the authors to put it on the Web.
- DOI and bibtex: see https://docs.abinit.org/theory/bibliography/#romero2020
-
- [6] Recent developments in the ABINIT software package.
- Computer Phys. Comm. 205, 106 (2016).
- X.Gonze, F.Jollet, F.Abreu Araujo, D.Adams, B.Amadon, T.Applencourt,
- C.Audouze, J.-M.Beuken, J.Bieder, A.Bokhanchuk, E.Bousquet, F.Bruneval
- D.Caliste, M.Cote, F.Dahm, F.Da Pieve, M.Delaveau, M.Di Gennaro,
- B.Dorado, C.Espejo, G.Geneste, L.Genovese, A.Gerossier, M.Giantomassi,
- Y.Gillet, D.R.Hamann, L.He, G.Jomard, J.Laflamme Janssen, S.Le Roux,
- A.Levitt, A.Lherbier, F.Liu, I.Lukacevic, A.Martin, C.Martins,
- M.J.T.Oliveira, S.Ponce, Y.Pouillon, T.Rangel, G.-M.Rignanese,
- A.H.Romero, B.Rousseau, O.Rubel, A.A.Shukri, M.Stankovski, M.Torrent,
- M.J.Van Setten, B.Van Troeye, M.J.Verstraete, D.Waroquier, J.Wiktor,
- B.Xu, A.Zhou, J.W.Zwanziger.
- Comment: the fourth generic paper describing the ABINIT project.
- Note that a version of this paper, that is not formatted for Computer Phys. Comm. 
- is available at https://www.abinit.org/sites/default/files/ABINIT16.pdf .
- The licence allows the authors to put it on the Web.
- DOI and bibtex: see https://docs.abinit.org/theory/bibliography/#gonze2016
-
- Proc.   0 individual time (sec): cpu=       3569.9  wall=       3578.4

================================================================================

 Calculation completed.
.Delivered   6 WARNINGs and   0 COMMENTs to log file.
+Overall time at end (sec) : cpu=      21417.0  wall=      21470.0
