  ABINIT 9.2.2
  
 DeprecationWarning: 

     The files file has been deprecated in Abinit9 and will be removed in Abinit10.
     Use the syntax `abinit t01.abi` where t01.abi is an input with pseudopotenials.

            pseudos = "al.psp8, as.psp8"


  Give name for formatted input file: 
Cs2TiI6.in
  Give name for formatted output file:
Cs2TiI6.out
  Give root name for generic input files:
Cs2TiI6i
  Give root name for generic output files:
Cs2TiI6o
  Give root name for generic temporary files:
Cs2TiI6

.Version 9.2.2 of ABINIT 
.(MPI version, prepared for a x86_64_linux_gnu9.3 computer) 

.Copyright (C) 1998-2020 ABINIT group . 
 ABINIT comes with ABSOLUTELY NO WARRANTY.
 It is free software, and you are welcome to redistribute it
 under certain conditions (GNU General Public License,
 see ~abinit/COPYING or http://www.gnu.org/copyleft/gpl.txt).

 ABINIT is a project of the Universite Catholique de Louvain,
 Corning Inc. and other collaborators, see ~abinit/doc/developers/contributors.txt .
 Please read https://docs.abinit.org/theory/acknowledgments for suggested
 acknowledgments of the ABINIT effort.
 For more information, see https://www.abinit.org .

.Starting date : Sat 16 Mar 2024.
- ( at 14h18 )
  
- The starting date is more than 3 years after the initial release
- of this version of ABINIT, namely Nov 2020.
- This version of ABINIT is not supported anymore.
- Action: please, switch to a more recent version of ABINIT.

 ++++++++++++++++++++++++++++++++++++++++++++++++++++++++++++++++++++++++++++++

 === Build Information === 
  Version       : 9.2.2
  Build target  : x86_64_linux_gnu9.3
  Build date    : 20210501

 === Compiler Suite === 
  C compiler       : gnu9.3
  C++ compiler     : generic0.0
  Fortran compiler : gnu9.3
  CFLAGS           : -g -O2 -mtune=native -march=native
  CXXFLAGS         : 
  FCFLAGS          : -g -ffree-line-length-none
  FC_LDFLAGS       : 

 === Optimizations === 
  Debug level        : basic
  Optimization level : standard
  Architecture       : unknown_unknown

 === Multicore === 
  Parallel build : yes
  Parallel I/O   : yes
  openMP support : 
  GPU support    : 

 === Connectors / Fallbacks === 
  LINALG flavor  : netlib
  FFT flavor     : goedecker
  HDF5           : yes
  NetCDF         : yes
  NetCDF Fortran : yes
  LibXC          : yes
  Wannier90      : no

 === Experimental features === 
  Exports             : 
  GW double-precision : 

 ++++++++++++++++++++++++++++++++++++++++++++++++++++++++++++++++++++++++++++++


 ++++++++++++++++++++++++++++++++++++++++++++++++++++++++++++++++++++++++++++++
 Default optimizations:
   -O2 -mtune=native -march=native


 Optimizations for 43_ptgroups:
   -O0


 ++++++++++++++++++++++++++++++++++++++++++++++++++++++++++++++++++++++++++++++


 ++++++++++++++++++++++++++++++++++++++++++++++++++++++++++++++++++++++++++++++
 CPP options activated during the build:

                    CC_GNU                    FC_GNU HAVE_FC_ALLOCATABLE_DT...
 
             HAVE_FC_ASYNC         HAVE_FC_BACKTRACE  HAVE_FC_COMMAND_ARGUMENT
 
      HAVE_FC_COMMAND_LINE        HAVE_FC_CONTIGUOUS           HAVE_FC_CPUTIME
 
              HAVE_FC_EXIT             HAVE_FC_FLUSH             HAVE_FC_GAMMA
 
            HAVE_FC_GETENV   HAVE_FC_IEEE_ARITHMETIC   HAVE_FC_IEEE_EXCEPTIONS
 
          HAVE_FC_INT_QUAD             HAVE_FC_IOMSG     HAVE_FC_ISO_C_BINDING
 
  HAVE_FC_ISO_FORTRAN_2008        HAVE_FC_LONG_LINES        HAVE_FC_MOVE_ALLOC
 
  HAVE_FC_ON_THE_FLY_SHAPE           HAVE_FC_PRIVATE         HAVE_FC_PROTECTED
 
           HAVE_FC_SHIFTLR         HAVE_FC_STREAM_IO            HAVE_FC_SYSTEM
 
          HAVE_FORTRAN2003                 HAVE_HDF5        HAVE_LIBPAW_ABINIT
 
      HAVE_LIBTETRA_ABINIT                HAVE_LIBXC                  HAVE_MPI
 
                 HAVE_MPI2       HAVE_MPI_IALLGATHER       HAVE_MPI_IALLREDUCE
 
        HAVE_MPI_IALLTOALL       HAVE_MPI_IALLTOALLV           HAVE_MPI_IBCAST
 
         HAVE_MPI_IGATHERV        HAVE_MPI_INTEGER16               HAVE_MPI_IO
 
 HAVE_MPI_TYPE_CREATE_S...               HAVE_NETCDF       HAVE_NETCDF_FORTRAN
 
             HAVE_OS_LINUX         HAVE_TIMER_ABINIT                            
 ++++++++++++++++++++++++++++++++++++++++++++++++++++++++++++++++++++++++++++++

- input  file    -> Cs2TiI6.in
- output file    -> Cs2TiI6.out
- root for input  files -> Cs2TiI6i
- root for output files -> Cs2TiI6o

-instrng: 87 lines of input have been read from file Cs2TiI6.in


 Please give name of formatted atomic psp file (and finish with a newline character)
 For atom type 1, psp file is ../../../Psps_for_tests/ATOMICDATA_NC/Sn.psp8

 Please give name of formatted atomic psp file (and finish with a newline character)
 For atom type 2, psp file is ../../../Psps_for_tests/ATOMICDATA_NC/Se.psp8

 Please give name of formatted atomic psp file (and finish with a newline character)
 For atom type 3, psp file is ../../../Psps_for_tests/ATOMICDATA_NC/Zn.psp8
  read the values zionpsp= 14.0 , pspcod=   8 , lmax=   2
  read the values zionpsp= 16.0 , pspcod=   8 , lmax=   2
  read the values zionpsp= 20.0 , pspcod=   8 , lmax=   2

 inpspheads: deduce mpsang = 3, n1xccc = 2501.

======================================================= 
 invars1m : enter jdtset= 1

 symlatt: the Bravais lattice is tP (primitive tetragonal)
  xred   is defined in input file
 ingeo: takes atomic coordinates from input array xred

--- !WARNING
src_file: m_ingeo.F90
src_line: 887
message: |
    The tolerance on symmetries =   1.000E-05 is bigger than 1.0e-8.
    In order to avoid spurious effects, the atomic coordinates have been
    symmetrized before storing them in the dataset internal variable.
    So, do not be surprised by the fact that your input variables (xcart, xred, ...)
    do not correspond to the ones echoed by ABINIT, the latter being used to do the calculations.
    In order to avoid this symmetrization (e.g. for specific debugging/development), decrease tolsym to 1.0e-8 or lower.
...


 symlatt: the Bravais lattice is tP (primitive tetragonal)

 symlatt: the Bravais lattice is tP (primitive tetragonal)
 symspgr: spgroup=  99  P4 m m   (=C4v^1)
 symspgr: optical characteristics = uniaxial
 Optical axis (in reduced coordinates, real space ) :   0   0   1

======================================================= 
 invars1m : enter jdtset= 2

 symlatt: the Bravais lattice is tP (primitive tetragonal)
  xred   is defined in input file
 ingeo: takes atomic coordinates from input array xred

--- !WARNING
src_file: m_ingeo.F90
src_line: 887
message: |
    The tolerance on symmetries =   1.000E-05 is bigger than 1.0e-8.
    In order to avoid spurious effects, the atomic coordinates have been
    symmetrized before storing them in the dataset internal variable.
    So, do not be surprised by the fact that your input variables (xcart, xred, ...)
    do not correspond to the ones echoed by ABINIT, the latter being used to do the calculations.
    In order to avoid this symmetrization (e.g. for specific debugging/development), decrease tolsym to 1.0e-8 or lower.
...


 symlatt: the Bravais lattice is tP (primitive tetragonal)

 symlatt: the Bravais lattice is tP (primitive tetragonal)
 symspgr: spgroup=  99  P4 m m   (=C4v^1)
 symspgr: optical characteristics = uniaxial
 Optical axis (in reduced coordinates, real space ) :   0   0   1

======================================================= 
 invars1m : enter jdtset= 3

 symlatt: the Bravais lattice is tP (primitive tetragonal)
  xred   is defined in input file
 ingeo: takes atomic coordinates from input array xred

--- !WARNING
src_file: m_ingeo.F90
src_line: 887
message: |
    The tolerance on symmetries =   1.000E-05 is bigger than 1.0e-8.
    In order to avoid spurious effects, the atomic coordinates have been
    symmetrized before storing them in the dataset internal variable.
    So, do not be surprised by the fact that your input variables (xcart, xred, ...)
    do not correspond to the ones echoed by ABINIT, the latter being used to do the calculations.
    In order to avoid this symmetrization (e.g. for specific debugging/development), decrease tolsym to 1.0e-8 or lower.
...


 symlatt: the Bravais lattice is tP (primitive tetragonal)

 symlatt: the Bravais lattice is tP (primitive tetragonal)
 symspgr: spgroup=  99  P4 m m   (=C4v^1)
 symspgr: optical characteristics = uniaxial
 Optical axis (in reduced coordinates, real space ) :   0   0   1

======================================================= 
 invars1m : enter jdtset= 4

 symlatt: the Bravais lattice is tP (primitive tetragonal)
  xred   is defined in input file
 ingeo: takes atomic coordinates from input array xred

--- !WARNING
src_file: m_ingeo.F90
src_line: 887
message: |
    The tolerance on symmetries =   1.000E-05 is bigger than 1.0e-8.
    In order to avoid spurious effects, the atomic coordinates have been
    symmetrized before storing them in the dataset internal variable.
    So, do not be surprised by the fact that your input variables (xcart, xred, ...)
    do not correspond to the ones echoed by ABINIT, the latter being used to do the calculations.
    In order to avoid this symmetrization (e.g. for specific debugging/development), decrease tolsym to 1.0e-8 or lower.
...


 symlatt: the Bravais lattice is tP (primitive tetragonal)

 symlatt: the Bravais lattice is tP (primitive tetragonal)
 symspgr: spgroup=  99  P4 m m   (=C4v^1)
 symspgr: optical characteristics = uniaxial
 Optical axis (in reduced coordinates, real space ) :   0   0   1

======================================================= 
 invars1m : enter jdtset= 5

 symlatt: the Bravais lattice is tP (primitive tetragonal)
  xred   is defined in input file
 ingeo: takes atomic coordinates from input array xred

--- !WARNING
src_file: m_ingeo.F90
src_line: 887
message: |
    The tolerance on symmetries =   1.000E-05 is bigger than 1.0e-8.
    In order to avoid spurious effects, the atomic coordinates have been
    symmetrized before storing them in the dataset internal variable.
    So, do not be surprised by the fact that your input variables (xcart, xred, ...)
    do not correspond to the ones echoed by ABINIT, the latter being used to do the calculations.
    In order to avoid this symmetrization (e.g. for specific debugging/development), decrease tolsym to 1.0e-8 or lower.
...


 symlatt: the Bravais lattice is tP (primitive tetragonal)

 symlatt: the Bravais lattice is tP (primitive tetragonal)
 symspgr: spgroup=  99  P4 m m   (=C4v^1)
 symspgr: optical characteristics = uniaxial
 Optical axis (in reduced coordinates, real space ) :   0   0   1

======================================================= 
 invars1m : enter jdtset= 6

 symlatt: the Bravais lattice is tP (primitive tetragonal)
  xred   is defined in input file
 ingeo: takes atomic coordinates from input array xred

--- !WARNING
src_file: m_ingeo.F90
src_line: 887
message: |
    The tolerance on symmetries =   1.000E-05 is bigger than 1.0e-8.
    In order to avoid spurious effects, the atomic coordinates have been
    symmetrized before storing them in the dataset internal variable.
    So, do not be surprised by the fact that your input variables (xcart, xred, ...)
    do not correspond to the ones echoed by ABINIT, the latter being used to do the calculations.
    In order to avoid this symmetrization (e.g. for specific debugging/development), decrease tolsym to 1.0e-8 or lower.
...


 symlatt: the Bravais lattice is tP (primitive tetragonal)

 symlatt: the Bravais lattice is tP (primitive tetragonal)
 symspgr: spgroup=  99  P4 m m   (=C4v^1)
 symspgr: optical characteristics = uniaxial
 Optical axis (in reduced coordinates, real space ) :   0   0   1
 For input ecut=  2.250000E+01 best grid ngfft=      36      36     128
       max ecut=  2.378741E+01

 ==== FFT mesh ====
  FFT mesh divisions ........................    36   36  128
  Augmented FFT divisions ...................    37   37  128
  FFT algorithm .............................   112
  FFT cache size ............................    16
 getmpw: optimal value of mpw= 8983
 For input ecut=  2.250000E+01 best grid ngfft=      36      36     128
       max ecut=  2.378741E+01

 ==== FFT mesh ====
  FFT mesh divisions ........................    36   36  128
  Augmented FFT divisions ...................    37   37  128
  FFT algorithm .............................   112
  FFT cache size ............................    16
 getmpw: optimal value of mpw= 8983

--- !WARNING
src_file: m_mpinfo.F90
src_line: 2281
message: |
    nkpt*nsppol (200) is not a multiple of nproc_kpt (6)
    The k-point parallelisation is inefficient. (Ignore this warning if this is not a GS run)
...

 For input ecut=  2.250000E+01 best grid ngfft=      36      36     128
       max ecut=  2.378741E+01

 ==== FFT mesh ====
  FFT mesh divisions ........................    36   36  128
  Augmented FFT divisions ...................    37   37  128
  FFT algorithm .............................   112
  FFT cache size ............................    16
 getmpw: optimal value of mpw= 8983
 For input ecut=  2.250000E+01 best grid ngfft=      36      36     128
       max ecut=  2.378741E+01

 ==== FFT mesh ====
  FFT mesh divisions ........................    36   36  128
  Augmented FFT divisions ...................    37   37  128
  FFT algorithm .............................   112
  FFT cache size ............................    16
 getmpw: optimal value of mpw= 8983
 getmpw: optimal value of mpw= 8983
 For input ecut=  2.250000E+01 best grid ngfft=      36      36     128
       max ecut=  2.378741E+01

 ==== FFT mesh ====
  FFT mesh divisions ........................    36   36  128
  Augmented FFT divisions ...................    37   37  128
  FFT algorithm .............................   112
  FFT cache size ............................    16
 getmpw: optimal value of mpw= 8983
 getmpw: optimal value of mpw= 8983
 For input ecut=  2.250000E+01 best grid ngfft=      36      36     128
       max ecut=  2.378741E+01

 ==== FFT mesh ====
  FFT mesh divisions ........................    36   36  128
  Augmented FFT divisions ...................    37   37  128
  FFT algorithm .............................   112
  FFT cache size ............................    16
 getmpw: optimal value of mpw= 8983
 getmpw: optimal value of mpw= 8983

 DATASET    1 : space group P4 m m (# 99); Bravais tP (primitive tetrag.)

 getdim_nloc : deduce lmnmax  =  18, lnmax  =   6,
                      lmnmaxso=  18, lnmaxso=   6.
memory: analysis of memory needs
================================================================================
 Values of the parameters that define the memory need for DATASET  1.
     intxc =       0    ionmov =       0      iscf =       7    lmnmax =       6
     lnmax =       6     mgfft =     128  mpssoang =       3    mqgrid =    6225
     natom =       6  nloc_mem =       1    nspden =       1   nspinor =       1
    nsppol =       1      nsym =       8    n1xccc =    2501    ntypat =       3
    occopt =       1   xclevel =       2
-    mband =          52        mffmem =           1         mkmem =           5
       mpw =        8983          nfft =      165888          nkpt =          30
================================================================================
P This job should need less than                      92.252 Mbytes of memory.
  Rough estimation (10% accuracy) of disk space for files :
_ WF disk file :    213.831 Mbytes ; DEN or POT disk file :      1.268 Mbytes.
================================================================================

 Biggest array : cg(disk), with     35.6401 MBytes.
 memana : allocated an array of     35.640 Mbytes, for testing purposes.
 memana: allocated      92.252Mbytes, for testing purposes. 
 The job will continue.

 DATASET    2 : space group P4 m m (# 99); Bravais tP (primitive tetrag.)

 getdim_nloc : deduce lmnmax  =  18, lnmax  =   6,
                      lmnmaxso=  18, lnmaxso=   6.
memory: analysis of memory needs
================================================================================
 Values of the parameters that define the memory need for DATASET  2.
     intxc =       0    ionmov =       0      iscf =      -2    lmnmax =       6
     lnmax =       6     mgfft =     128  mpssoang =       3    mqgrid =    6225
     natom =       6  nloc_mem =       1    nspden =       1   nspinor =       1
    nsppol =       1      nsym =       8    n1xccc =    2501    ntypat =       3
    occopt =       1   xclevel =       2
-    mband =         120        mffmem =           1         mkmem =           5
       mpw =        8983          nfft =      165888          nkpt =          30
================================================================================
P This job should need less than                     117.387 Mbytes of memory.
  Rough estimation (10% accuracy) of disk space for files :
_ WF disk file :    493.453 Mbytes ; DEN or POT disk file :      1.268 Mbytes.
================================================================================

 Biggest array : cg(disk), with     82.2438 MBytes.
 memana : allocated an array of     82.244 Mbytes, for testing purposes.
 memana: allocated     117.387Mbytes, for testing purposes. 
 The job will continue.

 DATASET    3 : space group P4 m m (# 99); Bravais tP (primitive tetrag.)

 getdim_nloc : deduce lmnmax  =  18, lnmax  =   6,
                      lmnmaxso=  18, lnmaxso=   6.
memory: analysis of memory needs
================================================================================
 Values of the parameters that define the memory need for DATASET  3.
     intxc =       0    ionmov =       0      iscf =      -2    lmnmax =       6
     lnmax =       6     mgfft =     128  mpssoang =       3    mqgrid =    6225
     natom =       6  nloc_mem =       1    nspden =       1   nspinor =       1
    nsppol =       1      nsym =       8    n1xccc =    2501    ntypat =       3
    occopt =       1   xclevel =       2
-    mband =         120        mffmem =           1         mkmem =          34
       mpw =        8983          nfft =      165888          nkpt =         200
================================================================================
P This job should need less than                     601.331 Mbytes of memory.
  Rough estimation (10% accuracy) of disk space for files :
_ WF disk file :   3289.675 Mbytes ; DEN or POT disk file :      1.268 Mbytes.
================================================================================

 Biggest array : cg(disk), with    559.2464 MBytes.
 memana : allocated an array of    559.246 Mbytes, for testing purposes.
 memana: allocated     601.331Mbytes, for testing purposes. 
 The job will continue.

 DATASET    4 : space group P4 m m (# 99); Bravais tP (primitive tetrag.)

 getdim_nloc : deduce lmnmax  =  18, lnmax  =   6,
                      lmnmaxso=  18, lnmaxso=   6.
 memorf : analysis of memory needs
================================================================================
 Values of the parameters that define the memory need for DATASET  4 (RF).
     intxc =       0      iscf =      -3    lmnmax =       6     lnmax =       6
     mgfft =     128  mpssoang =       3    mqgrid =    6225     natom =       6
  nloc_mem =       1    nspden =       1   nspinor =       1    nsppol =       1
      nsym =       8    n1xccc =    2501    ntypat =       3    occopt =       1
   xclevel =       2
-    mband =         120        mffmem =           1         mkmem =          34
-   mkqmem =          34        mk1mem =          34           mpw =        8983
      nfft =      165888          nkpt =         200
================================================================================
P This job should need less than                    1772.165 Mbytes of memory.
  Rough estimation (10% accuracy) of disk space for files :
_ WF disk file :   -806.325 Mbytes ; DEN or POT disk file :      1.268 Mbytes.
================================================================================

 Biggest array : cg(disk), with    559.2464 MBytes.
 memana : allocated an array of    559.246 Mbytes, for testing purposes.
 memana: allocated    1772.165Mbytes, for testing purposes. 
 The job will continue.

 DATASET    5 : space group P4 m m (# 99); Bravais tP (primitive tetrag.)

 getdim_nloc : deduce lmnmax  =  18, lnmax  =   6,
                      lmnmaxso=  18, lnmaxso=   6.
 memorf : analysis of memory needs
================================================================================
 Values of the parameters that define the memory need for DATASET  5 (RF).
     intxc =       0      iscf =      -3    lmnmax =       6     lnmax =       6
     mgfft =     128  mpssoang =       3    mqgrid =    6225     natom =       6
  nloc_mem =       1    nspden =       1   nspinor =       1    nsppol =       1
      nsym =       8    n1xccc =    2501    ntypat =       3    occopt =       1
   xclevel =       2
-    mband =         120        mffmem =           1         mkmem =          34
-   mkqmem =          34        mk1mem =          34           mpw =        8983
      nfft =      165888          nkpt =         200
================================================================================
P This job should need less than                    1772.165 Mbytes of memory.
  Rough estimation (10% accuracy) of disk space for files :
_ WF disk file :   -806.325 Mbytes ; DEN or POT disk file :      1.268 Mbytes.
================================================================================

 Biggest array : cg(disk), with    559.2464 MBytes.
 memana : allocated an array of    559.246 Mbytes, for testing purposes.
 memana: allocated    1772.165Mbytes, for testing purposes. 
 The job will continue.

 DATASET    6 : space group P4 m m (# 99); Bravais tP (primitive tetrag.)

 getdim_nloc : deduce lmnmax  =  18, lnmax  =   6,
                      lmnmaxso=  18, lnmaxso=   6.
 memorf : analysis of memory needs
================================================================================
 Values of the parameters that define the memory need for DATASET  6 (RF).
     intxc =       0      iscf =      -3    lmnmax =       6     lnmax =       6
     mgfft =     128  mpssoang =       3    mqgrid =    6225     natom =       6
  nloc_mem =       1    nspden =       1   nspinor =       1    nsppol =       1
      nsym =       8    n1xccc =    2501    ntypat =       3    occopt =       1
   xclevel =       2
-    mband =         120        mffmem =           1         mkmem =          34
-   mkqmem =          34        mk1mem =          34           mpw =        8983
      nfft =      165888          nkpt =         200
================================================================================
P This job should need less than                    1772.165 Mbytes of memory.
  Rough estimation (10% accuracy) of disk space for files :
_ WF disk file :   -806.325 Mbytes ; DEN or POT disk file :      1.268 Mbytes.
================================================================================

 Biggest array : cg(disk), with    559.2464 MBytes.
 memana : allocated an array of    559.246 Mbytes, for testing purposes.
 memana: allocated    1772.165Mbytes, for testing purposes. 
 The job will continue.
--------------------------------------------------------------------------------
------------- Echo of variables that govern the present computation ------------
--------------------------------------------------------------------------------
-
- outvars: echo of selected default values                                      
-   iomode0 =  0 , fftalg0 =112 , wfoptalg0 =  0
-
- outvars: echo of global parameters not present in the input file              
-  max_nthreads =    0
-
 -outvars: echo values of preprocessed input variables --------
 
 These variables are accessible in NetCDF format (Cs2TiI6o_OUT.nc)

            acell      7.7624316804E+00  7.7624316804E+00  7.7624316804E+00 Bohr
              amu      1.18710000E+02  7.89600000E+01  6.53900000E+01
           diemac      1.20000000E+01
             ecut      2.25000000E+01 Hartree
-          fftalg         112
           getden1          0
           getden2          1
           getden3          1
           getden4          0
           getden5          0
           getden6          0
           getwfk1          0
           getwfk2          1
           getwfk3          2
           getwfk4          3
           getwfk5          3
           getwfk6          3
             iscf1          7
             iscf2         -2
             iscf3         -2
             iscf4         -3
             iscf5         -3
             iscf6         -3
              ixc          11
           jdtset        1    2    3    4    5    6
              kpt1     5.00000000E-02  5.00000000E-02  1.25000000E-01
                       1.50000000E-01  5.00000000E-02  1.25000000E-01
                       2.50000000E-01  5.00000000E-02  1.25000000E-01
                       3.50000000E-01  5.00000000E-02  1.25000000E-01
                       4.50000000E-01  5.00000000E-02  1.25000000E-01
                       1.50000000E-01  1.50000000E-01  1.25000000E-01
                       2.50000000E-01  1.50000000E-01  1.25000000E-01
                       3.50000000E-01  1.50000000E-01  1.25000000E-01
                       4.50000000E-01  1.50000000E-01  1.25000000E-01
                       2.50000000E-01  2.50000000E-01  1.25000000E-01
                       3.50000000E-01  2.50000000E-01  1.25000000E-01
                       4.50000000E-01  2.50000000E-01  1.25000000E-01
                       3.50000000E-01  3.50000000E-01  1.25000000E-01
                       4.50000000E-01  3.50000000E-01  1.25000000E-01
                       4.50000000E-01  4.50000000E-01  1.25000000E-01
                       5.00000000E-02  5.00000000E-02  3.75000000E-01
                       1.50000000E-01  5.00000000E-02  3.75000000E-01
                       2.50000000E-01  5.00000000E-02  3.75000000E-01
                       3.50000000E-01  5.00000000E-02  3.75000000E-01
                       4.50000000E-01  5.00000000E-02  3.75000000E-01
                       1.50000000E-01  1.50000000E-01  3.75000000E-01
                       2.50000000E-01  1.50000000E-01  3.75000000E-01
                       3.50000000E-01  1.50000000E-01  3.75000000E-01
                       4.50000000E-01  1.50000000E-01  3.75000000E-01
                       2.50000000E-01  2.50000000E-01  3.75000000E-01
                       3.50000000E-01  2.50000000E-01  3.75000000E-01
                       4.50000000E-01  2.50000000E-01  3.75000000E-01
                       3.50000000E-01  3.50000000E-01  3.75000000E-01
                       4.50000000E-01  3.50000000E-01  3.75000000E-01
                       4.50000000E-01  4.50000000E-01  3.75000000E-01
              kpt2     5.00000000E-02  5.00000000E-02  1.25000000E-01
                       1.50000000E-01  5.00000000E-02  1.25000000E-01
                       2.50000000E-01  5.00000000E-02  1.25000000E-01
                       3.50000000E-01  5.00000000E-02  1.25000000E-01
                       4.50000000E-01  5.00000000E-02  1.25000000E-01
                       1.50000000E-01  1.50000000E-01  1.25000000E-01
                       2.50000000E-01  1.50000000E-01  1.25000000E-01
                       3.50000000E-01  1.50000000E-01  1.25000000E-01
                       4.50000000E-01  1.50000000E-01  1.25000000E-01
                       2.50000000E-01  2.50000000E-01  1.25000000E-01
                       3.50000000E-01  2.50000000E-01  1.25000000E-01
                       4.50000000E-01  2.50000000E-01  1.25000000E-01
                       3.50000000E-01  3.50000000E-01  1.25000000E-01
                       4.50000000E-01  3.50000000E-01  1.25000000E-01
                       4.50000000E-01  4.50000000E-01  1.25000000E-01
                       5.00000000E-02  5.00000000E-02  3.75000000E-01
                       1.50000000E-01  5.00000000E-02  3.75000000E-01
                       2.50000000E-01  5.00000000E-02  3.75000000E-01
                       3.50000000E-01  5.00000000E-02  3.75000000E-01
                       4.50000000E-01  5.00000000E-02  3.75000000E-01
                       1.50000000E-01  1.50000000E-01  3.75000000E-01
                       2.50000000E-01  1.50000000E-01  3.75000000E-01
                       3.50000000E-01  1.50000000E-01  3.75000000E-01
                       4.50000000E-01  1.50000000E-01  3.75000000E-01
                       2.50000000E-01  2.50000000E-01  3.75000000E-01
                       3.50000000E-01  2.50000000E-01  3.75000000E-01
                       4.50000000E-01  2.50000000E-01  3.75000000E-01
                       3.50000000E-01  3.50000000E-01  3.75000000E-01
                       4.50000000E-01  3.50000000E-01  3.75000000E-01
                       4.50000000E-01  4.50000000E-01  3.75000000E-01
              kpt3     5.00000000E-02  5.00000000E-02  1.25000000E-01
                       1.50000000E-01  5.00000000E-02  1.25000000E-01
                       2.50000000E-01  5.00000000E-02  1.25000000E-01
                       3.50000000E-01  5.00000000E-02  1.25000000E-01
                       4.50000000E-01  5.00000000E-02  1.25000000E-01
                      -4.50000000E-01  5.00000000E-02  1.25000000E-01
                      -3.50000000E-01  5.00000000E-02  1.25000000E-01
                      -2.50000000E-01  5.00000000E-02  1.25000000E-01
                      -1.50000000E-01  5.00000000E-02  1.25000000E-01
                      -5.00000000E-02  5.00000000E-02  1.25000000E-01
                       5.00000000E-02  1.50000000E-01  1.25000000E-01
                       1.50000000E-01  1.50000000E-01  1.25000000E-01
                       2.50000000E-01  1.50000000E-01  1.25000000E-01
                       3.50000000E-01  1.50000000E-01  1.25000000E-01
                       4.50000000E-01  1.50000000E-01  1.25000000E-01
                      -4.50000000E-01  1.50000000E-01  1.25000000E-01
                      -3.50000000E-01  1.50000000E-01  1.25000000E-01
                      -2.50000000E-01  1.50000000E-01  1.25000000E-01
                      -1.50000000E-01  1.50000000E-01  1.25000000E-01
                      -5.00000000E-02  1.50000000E-01  1.25000000E-01
                       5.00000000E-02  2.50000000E-01  1.25000000E-01
                       1.50000000E-01  2.50000000E-01  1.25000000E-01
                       2.50000000E-01  2.50000000E-01  1.25000000E-01
                       3.50000000E-01  2.50000000E-01  1.25000000E-01
                       4.50000000E-01  2.50000000E-01  1.25000000E-01
                      -4.50000000E-01  2.50000000E-01  1.25000000E-01
                      -3.50000000E-01  2.50000000E-01  1.25000000E-01
                      -2.50000000E-01  2.50000000E-01  1.25000000E-01
                      -1.50000000E-01  2.50000000E-01  1.25000000E-01
                      -5.00000000E-02  2.50000000E-01  1.25000000E-01
                       5.00000000E-02  3.50000000E-01  1.25000000E-01
                       1.50000000E-01  3.50000000E-01  1.25000000E-01
                       2.50000000E-01  3.50000000E-01  1.25000000E-01
                       3.50000000E-01  3.50000000E-01  1.25000000E-01
                       4.50000000E-01  3.50000000E-01  1.25000000E-01
                      -4.50000000E-01  3.50000000E-01  1.25000000E-01
                      -3.50000000E-01  3.50000000E-01  1.25000000E-01
                      -2.50000000E-01  3.50000000E-01  1.25000000E-01
                      -1.50000000E-01  3.50000000E-01  1.25000000E-01
                      -5.00000000E-02  3.50000000E-01  1.25000000E-01
                       5.00000000E-02  4.50000000E-01  1.25000000E-01
                       1.50000000E-01  4.50000000E-01  1.25000000E-01
                       2.50000000E-01  4.50000000E-01  1.25000000E-01
                       3.50000000E-01  4.50000000E-01  1.25000000E-01
                       4.50000000E-01  4.50000000E-01  1.25000000E-01
                      -4.50000000E-01  4.50000000E-01  1.25000000E-01
                      -3.50000000E-01  4.50000000E-01  1.25000000E-01
                      -2.50000000E-01  4.50000000E-01  1.25000000E-01
                      -1.50000000E-01  4.50000000E-01  1.25000000E-01
                      -5.00000000E-02  4.50000000E-01  1.25000000E-01
              kpt4     5.00000000E-02  5.00000000E-02  1.25000000E-01
                       1.50000000E-01  5.00000000E-02  1.25000000E-01
                       2.50000000E-01  5.00000000E-02  1.25000000E-01
                       3.50000000E-01  5.00000000E-02  1.25000000E-01
                       4.50000000E-01  5.00000000E-02  1.25000000E-01
                      -4.50000000E-01  5.00000000E-02  1.25000000E-01
                      -3.50000000E-01  5.00000000E-02  1.25000000E-01
                      -2.50000000E-01  5.00000000E-02  1.25000000E-01
                      -1.50000000E-01  5.00000000E-02  1.25000000E-01
                      -5.00000000E-02  5.00000000E-02  1.25000000E-01
                       5.00000000E-02  1.50000000E-01  1.25000000E-01
                       1.50000000E-01  1.50000000E-01  1.25000000E-01
                       2.50000000E-01  1.50000000E-01  1.25000000E-01
                       3.50000000E-01  1.50000000E-01  1.25000000E-01
                       4.50000000E-01  1.50000000E-01  1.25000000E-01
                      -4.50000000E-01  1.50000000E-01  1.25000000E-01
                      -3.50000000E-01  1.50000000E-01  1.25000000E-01
                      -2.50000000E-01  1.50000000E-01  1.25000000E-01
                      -1.50000000E-01  1.50000000E-01  1.25000000E-01
                      -5.00000000E-02  1.50000000E-01  1.25000000E-01
                       5.00000000E-02  2.50000000E-01  1.25000000E-01
                       1.50000000E-01  2.50000000E-01  1.25000000E-01
                       2.50000000E-01  2.50000000E-01  1.25000000E-01
                       3.50000000E-01  2.50000000E-01  1.25000000E-01
                       4.50000000E-01  2.50000000E-01  1.25000000E-01
                      -4.50000000E-01  2.50000000E-01  1.25000000E-01
                      -3.50000000E-01  2.50000000E-01  1.25000000E-01
                      -2.50000000E-01  2.50000000E-01  1.25000000E-01
                      -1.50000000E-01  2.50000000E-01  1.25000000E-01
                      -5.00000000E-02  2.50000000E-01  1.25000000E-01
                       5.00000000E-02  3.50000000E-01  1.25000000E-01
                       1.50000000E-01  3.50000000E-01  1.25000000E-01
                       2.50000000E-01  3.50000000E-01  1.25000000E-01
                       3.50000000E-01  3.50000000E-01  1.25000000E-01
                       4.50000000E-01  3.50000000E-01  1.25000000E-01
                      -4.50000000E-01  3.50000000E-01  1.25000000E-01
                      -3.50000000E-01  3.50000000E-01  1.25000000E-01
                      -2.50000000E-01  3.50000000E-01  1.25000000E-01
                      -1.50000000E-01  3.50000000E-01  1.25000000E-01
                      -5.00000000E-02  3.50000000E-01  1.25000000E-01
                       5.00000000E-02  4.50000000E-01  1.25000000E-01
                       1.50000000E-01  4.50000000E-01  1.25000000E-01
                       2.50000000E-01  4.50000000E-01  1.25000000E-01
                       3.50000000E-01  4.50000000E-01  1.25000000E-01
                       4.50000000E-01  4.50000000E-01  1.25000000E-01
                      -4.50000000E-01  4.50000000E-01  1.25000000E-01
                      -3.50000000E-01  4.50000000E-01  1.25000000E-01
                      -2.50000000E-01  4.50000000E-01  1.25000000E-01
                      -1.50000000E-01  4.50000000E-01  1.25000000E-01
                      -5.00000000E-02  4.50000000E-01  1.25000000E-01
              kpt5     5.00000000E-02  5.00000000E-02  1.25000000E-01
                       1.50000000E-01  5.00000000E-02  1.25000000E-01
                       2.50000000E-01  5.00000000E-02  1.25000000E-01
                       3.50000000E-01  5.00000000E-02  1.25000000E-01
                       4.50000000E-01  5.00000000E-02  1.25000000E-01
                      -4.50000000E-01  5.00000000E-02  1.25000000E-01
                      -3.50000000E-01  5.00000000E-02  1.25000000E-01
                      -2.50000000E-01  5.00000000E-02  1.25000000E-01
                      -1.50000000E-01  5.00000000E-02  1.25000000E-01
                      -5.00000000E-02  5.00000000E-02  1.25000000E-01
                       5.00000000E-02  1.50000000E-01  1.25000000E-01
                       1.50000000E-01  1.50000000E-01  1.25000000E-01
                       2.50000000E-01  1.50000000E-01  1.25000000E-01
                       3.50000000E-01  1.50000000E-01  1.25000000E-01
                       4.50000000E-01  1.50000000E-01  1.25000000E-01
                      -4.50000000E-01  1.50000000E-01  1.25000000E-01
                      -3.50000000E-01  1.50000000E-01  1.25000000E-01
                      -2.50000000E-01  1.50000000E-01  1.25000000E-01
                      -1.50000000E-01  1.50000000E-01  1.25000000E-01
                      -5.00000000E-02  1.50000000E-01  1.25000000E-01
                       5.00000000E-02  2.50000000E-01  1.25000000E-01
                       1.50000000E-01  2.50000000E-01  1.25000000E-01
                       2.50000000E-01  2.50000000E-01  1.25000000E-01
                       3.50000000E-01  2.50000000E-01  1.25000000E-01
                       4.50000000E-01  2.50000000E-01  1.25000000E-01
                      -4.50000000E-01  2.50000000E-01  1.25000000E-01
                      -3.50000000E-01  2.50000000E-01  1.25000000E-01
                      -2.50000000E-01  2.50000000E-01  1.25000000E-01
                      -1.50000000E-01  2.50000000E-01  1.25000000E-01
                      -5.00000000E-02  2.50000000E-01  1.25000000E-01
                       5.00000000E-02  3.50000000E-01  1.25000000E-01
                       1.50000000E-01  3.50000000E-01  1.25000000E-01
                       2.50000000E-01  3.50000000E-01  1.25000000E-01
                       3.50000000E-01  3.50000000E-01  1.25000000E-01
                       4.50000000E-01  3.50000000E-01  1.25000000E-01
                      -4.50000000E-01  3.50000000E-01  1.25000000E-01
                      -3.50000000E-01  3.50000000E-01  1.25000000E-01
                      -2.50000000E-01  3.50000000E-01  1.25000000E-01
                      -1.50000000E-01  3.50000000E-01  1.25000000E-01
                      -5.00000000E-02  3.50000000E-01  1.25000000E-01
                       5.00000000E-02  4.50000000E-01  1.25000000E-01
                       1.50000000E-01  4.50000000E-01  1.25000000E-01
                       2.50000000E-01  4.50000000E-01  1.25000000E-01
                       3.50000000E-01  4.50000000E-01  1.25000000E-01
                       4.50000000E-01  4.50000000E-01  1.25000000E-01
                      -4.50000000E-01  4.50000000E-01  1.25000000E-01
                      -3.50000000E-01  4.50000000E-01  1.25000000E-01
                      -2.50000000E-01  4.50000000E-01  1.25000000E-01
                      -1.50000000E-01  4.50000000E-01  1.25000000E-01
                      -5.00000000E-02  4.50000000E-01  1.25000000E-01
              kpt6     5.00000000E-02  5.00000000E-02  1.25000000E-01
                       1.50000000E-01  5.00000000E-02  1.25000000E-01
                       2.50000000E-01  5.00000000E-02  1.25000000E-01
                       3.50000000E-01  5.00000000E-02  1.25000000E-01
                       4.50000000E-01  5.00000000E-02  1.25000000E-01
                      -4.50000000E-01  5.00000000E-02  1.25000000E-01
                      -3.50000000E-01  5.00000000E-02  1.25000000E-01
                      -2.50000000E-01  5.00000000E-02  1.25000000E-01
                      -1.50000000E-01  5.00000000E-02  1.25000000E-01
                      -5.00000000E-02  5.00000000E-02  1.25000000E-01
                       5.00000000E-02  1.50000000E-01  1.25000000E-01
                       1.50000000E-01  1.50000000E-01  1.25000000E-01
                       2.50000000E-01  1.50000000E-01  1.25000000E-01
                       3.50000000E-01  1.50000000E-01  1.25000000E-01
                       4.50000000E-01  1.50000000E-01  1.25000000E-01
                      -4.50000000E-01  1.50000000E-01  1.25000000E-01
                      -3.50000000E-01  1.50000000E-01  1.25000000E-01
                      -2.50000000E-01  1.50000000E-01  1.25000000E-01
                      -1.50000000E-01  1.50000000E-01  1.25000000E-01
                      -5.00000000E-02  1.50000000E-01  1.25000000E-01
                       5.00000000E-02  2.50000000E-01  1.25000000E-01
                       1.50000000E-01  2.50000000E-01  1.25000000E-01
                       2.50000000E-01  2.50000000E-01  1.25000000E-01
                       3.50000000E-01  2.50000000E-01  1.25000000E-01
                       4.50000000E-01  2.50000000E-01  1.25000000E-01
                      -4.50000000E-01  2.50000000E-01  1.25000000E-01
                      -3.50000000E-01  2.50000000E-01  1.25000000E-01
                      -2.50000000E-01  2.50000000E-01  1.25000000E-01
                      -1.50000000E-01  2.50000000E-01  1.25000000E-01
                      -5.00000000E-02  2.50000000E-01  1.25000000E-01
                       5.00000000E-02  3.50000000E-01  1.25000000E-01
                       1.50000000E-01  3.50000000E-01  1.25000000E-01
                       2.50000000E-01  3.50000000E-01  1.25000000E-01
                       3.50000000E-01  3.50000000E-01  1.25000000E-01
                       4.50000000E-01  3.50000000E-01  1.25000000E-01
                      -4.50000000E-01  3.50000000E-01  1.25000000E-01
                      -3.50000000E-01  3.50000000E-01  1.25000000E-01
                      -2.50000000E-01  3.50000000E-01  1.25000000E-01
                      -1.50000000E-01  3.50000000E-01  1.25000000E-01
                      -5.00000000E-02  3.50000000E-01  1.25000000E-01
                       5.00000000E-02  4.50000000E-01  1.25000000E-01
                       1.50000000E-01  4.50000000E-01  1.25000000E-01
                       2.50000000E-01  4.50000000E-01  1.25000000E-01
                       3.50000000E-01  4.50000000E-01  1.25000000E-01
                       4.50000000E-01  4.50000000E-01  1.25000000E-01
                      -4.50000000E-01  4.50000000E-01  1.25000000E-01
                      -3.50000000E-01  4.50000000E-01  1.25000000E-01
                      -2.50000000E-01  4.50000000E-01  1.25000000E-01
                      -1.50000000E-01  4.50000000E-01  1.25000000E-01
                      -5.00000000E-02  4.50000000E-01  1.25000000E-01
                       outvar_i_n : Printing only first  50 k-points.
           kptopt1          1
           kptopt2          1
           kptopt3          2
           kptopt4          2
           kptopt5          2
           kptopt6          2
         kptrlatt       10    0    0      0   10    0      0    0    4
          kptrlen      7.76243168E+01
P           mkmem1          5
P           mkmem2          5
P           mkmem3         34
P           mkmem4         34
P           mkmem5         34
P           mkmem6         34
P          mkqmem1          5
P          mkqmem2          5
P          mkqmem3         34
P          mkqmem4         34
P          mkqmem5         34
P          mkqmem6         34
P          mk1mem1          5
P          mk1mem2          5
P          mk1mem3         34
P          mk1mem4         34
P          mk1mem5         34
P          mk1mem6         34
            natom           6
            nband1         52
            nband2        120
            nband3        120
            nband4        120
            nband5        120
            nband6        120
           nbdbuf1          0
           nbdbuf2          2
           nbdbuf3          2
           nbdbuf4          2
           nbdbuf5          2
           nbdbuf6          2
           ndtset           6
            ngfft          36      36     128
             nkpt1         30
             nkpt2         30
             nkpt3        200
             nkpt4        200
             nkpt5        200
             nkpt6        200
            nline1          4
            nline2          4
            nline3          4
            nline4          0
            nline5          0
            nline6          0
             nqpt1          0
             nqpt2          0
             nqpt3          0
             nqpt4          1
             nqpt5          1
             nqpt6          1
            nstep1        400
            nstep2        200
            nstep3        200
            nstep4          1
            nstep5          1
            nstep6          1
             nsym           8
           ntypat           3
              occ1     2.000000  2.000000  2.000000  2.000000  2.000000  2.000000
                       2.000000  2.000000  2.000000  2.000000  2.000000  2.000000
                       2.000000  2.000000  2.000000  2.000000  2.000000  2.000000
                       2.000000  2.000000  2.000000  2.000000  2.000000  2.000000
                       2.000000  2.000000  2.000000  2.000000  2.000000  2.000000
                       2.000000  2.000000  2.000000  2.000000  2.000000  2.000000
                       2.000000  2.000000  2.000000  2.000000  2.000000  2.000000
                       2.000000  2.000000  2.000000  2.000000  2.000000  2.000000
                       2.000000  2.000000  2.000000  0.000000
              occ4     2.000000  2.000000  2.000000  2.000000  2.000000  2.000000
                       2.000000  2.000000  2.000000  2.000000  2.000000  2.000000
                       2.000000  2.000000  2.000000  2.000000  2.000000  2.000000
                       2.000000  2.000000  2.000000  2.000000  2.000000  2.000000
                       2.000000  2.000000  2.000000  2.000000  2.000000  2.000000
                       2.000000  2.000000  2.000000  2.000000  2.000000  2.000000
                       2.000000  2.000000  2.000000  2.000000  2.000000  2.000000
                       2.000000  2.000000  2.000000  2.000000  2.000000  2.000000
                       2.000000  2.000000  2.000000  0.000000  0.000000  0.000000
                       0.000000  0.000000  0.000000  0.000000  0.000000  0.000000
                       0.000000  0.000000  0.000000  0.000000  0.000000  0.000000
                       0.000000  0.000000  0.000000  0.000000  0.000000  0.000000
                       0.000000  0.000000  0.000000  0.000000  0.000000  0.000000
                       0.000000  0.000000  0.000000  0.000000  0.000000  0.000000
                       0.000000  0.000000  0.000000  0.000000  0.000000  0.000000
                       0.000000  0.000000  0.000000  0.000000  0.000000  0.000000
                       0.000000  0.000000  0.000000  0.000000  0.000000  0.000000
                       0.000000  0.000000  0.000000  0.000000  0.000000  0.000000
                       0.000000  0.000000  0.000000  0.000000  0.000000  0.000000
                       0.000000  0.000000  0.000000  0.000000  0.000000  0.000000
              occ5     2.000000  2.000000  2.000000  2.000000  2.000000  2.000000
                       2.000000  2.000000  2.000000  2.000000  2.000000  2.000000
                       2.000000  2.000000  2.000000  2.000000  2.000000  2.000000
                       2.000000  2.000000  2.000000  2.000000  2.000000  2.000000
                       2.000000  2.000000  2.000000  2.000000  2.000000  2.000000
                       2.000000  2.000000  2.000000  2.000000  2.000000  2.000000
                       2.000000  2.000000  2.000000  2.000000  2.000000  2.000000
                       2.000000  2.000000  2.000000  2.000000  2.000000  2.000000
                       2.000000  2.000000  2.000000  0.000000  0.000000  0.000000
                       0.000000  0.000000  0.000000  0.000000  0.000000  0.000000
                       0.000000  0.000000  0.000000  0.000000  0.000000  0.000000
                       0.000000  0.000000  0.000000  0.000000  0.000000  0.000000
                       0.000000  0.000000  0.000000  0.000000  0.000000  0.000000
                       0.000000  0.000000  0.000000  0.000000  0.000000  0.000000
                       0.000000  0.000000  0.000000  0.000000  0.000000  0.000000
                       0.000000  0.000000  0.000000  0.000000  0.000000  0.000000
                       0.000000  0.000000  0.000000  0.000000  0.000000  0.000000
                       0.000000  0.000000  0.000000  0.000000  0.000000  0.000000
                       0.000000  0.000000  0.000000  0.000000  0.000000  0.000000
                       0.000000  0.000000  0.000000  0.000000  0.000000  0.000000
              occ6     2.000000  2.000000  2.000000  2.000000  2.000000  2.000000
                       2.000000  2.000000  2.000000  2.000000  2.000000  2.000000
                       2.000000  2.000000  2.000000  2.000000  2.000000  2.000000
                       2.000000  2.000000  2.000000  2.000000  2.000000  2.000000
                       2.000000  2.000000  2.000000  2.000000  2.000000  2.000000
                       2.000000  2.000000  2.000000  2.000000  2.000000  2.000000
                       2.000000  2.000000  2.000000  2.000000  2.000000  2.000000
                       2.000000  2.000000  2.000000  2.000000  2.000000  2.000000
                       2.000000  2.000000  2.000000  0.000000  0.000000  0.000000
                       0.000000  0.000000  0.000000  0.000000  0.000000  0.000000
                       0.000000  0.000000  0.000000  0.000000  0.000000  0.000000
                       0.000000  0.000000  0.000000  0.000000  0.000000  0.000000
                       0.000000  0.000000  0.000000  0.000000  0.000000  0.000000
                       0.000000  0.000000  0.000000  0.000000  0.000000  0.000000
                       0.000000  0.000000  0.000000  0.000000  0.000000  0.000000
                       0.000000  0.000000  0.000000  0.000000  0.000000  0.000000
                       0.000000  0.000000  0.000000  0.000000  0.000000  0.000000
                       0.000000  0.000000  0.000000  0.000000  0.000000  0.000000
                       0.000000  0.000000  0.000000  0.000000  0.000000  0.000000
                       0.000000  0.000000  0.000000  0.000000  0.000000  0.000000
        optdriver1          0
        optdriver2          0
        optdriver3          0
        optdriver4          1
        optdriver5          1
        optdriver6          1
            prtwf1          1
            prtwf2          1
            prtwf3          1
            prtwf4          3
            prtwf5          3
            prtwf6          3
            rfdir1          0       0       0
            rfdir2          0       0       0
            rfdir3          0       0       0
            rfdir4          1       0       0
            rfdir5          0       1       0
            rfdir6          0       0       1
           rfelfd1          0
           rfelfd2          0
           rfelfd3          0
           rfelfd4          2
           rfelfd5          2
           rfelfd6          2
            rprim      1.0000000000E+00  0.0000000000E+00  0.0000000000E+00
                       0.0000000000E+00  1.0000000000E+00  0.0000000000E+00
                       0.0000000000E+00  0.0000000000E+00  3.7552899407E+00
           shiftk      5.00000000E-01  5.00000000E-01  5.00000000E-01
          spgroup          99
           symrel      1  0  0   0  1  0   0  0  1       1  0  0   0 -1  0   0  0  1
                      -1  0  0   0 -1  0   0  0  1      -1  0  0   0  1  0   0  0  1
                       0  1  0   1  0  0   0  0  1       0  1  0  -1  0  0   0  0  1
                       0 -1  0  -1  0  0   0  0  1       0 -1  0   1  0  0   0  0  1
            tnons      0.0000000  0.0000000  0.0000000     0.0000000  0.0000000  0.0000000
                       0.0000000  0.0000000  0.0000000     0.0000000  0.0000000  0.0000000
                       0.5000000  0.5000000  0.0000000     0.5000000  0.5000000  0.0000000
                       0.5000000  0.5000000  0.0000000     0.5000000  0.5000000  0.0000000
           tolwfr      1.00000000E-20
            typat      1  2  2  2  3  3
           vdw_xc           5
              wtk1       0.02000    0.04000    0.04000    0.04000    0.04000    0.02000
                         0.04000    0.04000    0.04000    0.02000    0.04000    0.04000
                         0.02000    0.04000    0.02000    0.02000    0.04000    0.04000
                         0.04000    0.04000    0.02000    0.04000    0.04000    0.04000
                         0.02000    0.04000    0.04000    0.02000    0.04000    0.02000
              wtk2       0.02000    0.04000    0.04000    0.04000    0.04000    0.02000
                         0.04000    0.04000    0.04000    0.02000    0.04000    0.04000
                         0.02000    0.04000    0.02000    0.02000    0.04000    0.04000
                         0.04000    0.04000    0.02000    0.04000    0.04000    0.04000
                         0.02000    0.04000    0.04000    0.02000    0.04000    0.02000
              wtk3       0.00500    0.00500    0.00500    0.00500    0.00500    0.00500
                         0.00500    0.00500    0.00500    0.00500    0.00500    0.00500
                         0.00500    0.00500    0.00500    0.00500    0.00500    0.00500
                         0.00500    0.00500    0.00500    0.00500    0.00500    0.00500
                         0.00500    0.00500    0.00500    0.00500    0.00500    0.00500
                         0.00500    0.00500    0.00500    0.00500    0.00500    0.00500
                         0.00500    0.00500    0.00500    0.00500    0.00500    0.00500
                         0.00500    0.00500    0.00500    0.00500    0.00500    0.00500
                         0.00500    0.00500
              wtk4       0.00500    0.00500    0.00500    0.00500    0.00500    0.00500
                         0.00500    0.00500    0.00500    0.00500    0.00500    0.00500
                         0.00500    0.00500    0.00500    0.00500    0.00500    0.00500
                         0.00500    0.00500    0.00500    0.00500    0.00500    0.00500
                         0.00500    0.00500    0.00500    0.00500    0.00500    0.00500
                         0.00500    0.00500    0.00500    0.00500    0.00500    0.00500
                         0.00500    0.00500    0.00500    0.00500    0.00500    0.00500
                         0.00500    0.00500    0.00500    0.00500    0.00500    0.00500
                         0.00500    0.00500
              wtk5       0.00500    0.00500    0.00500    0.00500    0.00500    0.00500
                         0.00500    0.00500    0.00500    0.00500    0.00500    0.00500
                         0.00500    0.00500    0.00500    0.00500    0.00500    0.00500
                         0.00500    0.00500    0.00500    0.00500    0.00500    0.00500
                         0.00500    0.00500    0.00500    0.00500    0.00500    0.00500
                         0.00500    0.00500    0.00500    0.00500    0.00500    0.00500
                         0.00500    0.00500    0.00500    0.00500    0.00500    0.00500
                         0.00500    0.00500    0.00500    0.00500    0.00500    0.00500
                         0.00500    0.00500
              wtk6       0.00500    0.00500    0.00500    0.00500    0.00500    0.00500
                         0.00500    0.00500    0.00500    0.00500    0.00500    0.00500
                         0.00500    0.00500    0.00500    0.00500    0.00500    0.00500
                         0.00500    0.00500    0.00500    0.00500    0.00500    0.00500
                         0.00500    0.00500    0.00500    0.00500    0.00500    0.00500
                         0.00500    0.00500    0.00500    0.00500    0.00500    0.00500
                         0.00500    0.00500    0.00500    0.00500    0.00500    0.00500
                         0.00500    0.00500    0.00500    0.00500    0.00500    0.00500
                         0.00500    0.00500
                       outvars : Printing only first  50 k-points.
           xangst      2.0538509643E+00  0.0000000000E+00  4.6664635074E+00
                       0.0000000000E+00  2.0538509643E+00  4.6982402675E+00
                       2.0538509643E+00  0.0000000000E+00  7.7691247742E+00
                       0.0000000000E+00  2.0538509643E+00  1.0759148224E+01
                       2.0538509643E+00  2.0538509643E+00  9.2641442120E+00
                       0.0000000000E+00  0.0000000000E+00  9.2641442120E+00
            xcart      3.8812158402E+00  0.0000000000E+00  8.8183380380E+00
                       0.0000000000E+00  3.8812158402E+00  8.8783874121E+00
                       3.8812158402E+00  0.0000000000E+00  1.4681518115E+01
                       0.0000000000E+00  3.8812158402E+00  2.0331843567E+01
                       3.8812158402E+00  3.8812158402E+00  1.7506695416E+01
                       0.0000000000E+00  0.0000000000E+00  1.7506695416E+01
             xred      5.0000000000E-01  0.0000000000E+00  3.0251400000E-01
                       0.0000000000E+00  5.0000000000E-01  3.0457400000E-01
                       5.0000000000E-01  0.0000000000E+00  5.0365100000E-01
                       0.0000000000E+00  5.0000000000E-01  6.9748600000E-01
                       5.0000000000E-01  5.0000000000E-01  6.0056900000E-01
                       0.0000000000E+00  0.0000000000E+00  6.0056900000E-01
            znucl       50.00000   34.00000   30.00000

================================================================================

 chkinp: Checking input parameters for consistency, jdtset=   1.

 chkinp: Checking input parameters for consistency, jdtset=   2.

 chkinp: Checking input parameters for consistency, jdtset=   3.

 chkinp: Checking input parameters for consistency, jdtset=   4.

 chkinp: Checking input parameters for consistency, jdtset=   5.

 chkinp: Checking input parameters for consistency, jdtset=   6.
 DATA TYPE INFORMATION: 
 REAL:      Data type name: REAL(DP) 
            Kind value:      8
            Precision:      15
            Smallest nonnegligible quantity relative to 1: 0.22204460E-015
            Smallest positive number:                      0.22250739E-307
            Largest representable number:                  0.17976931E+309
 INTEGER:   Data type name: INTEGER(default) 
            Kind value: 4
            Bit size:   32
            Largest representable number: 2147483647
 LOGICAL:   Data type name: LOGICAL 
            Kind value: 4
 CHARACTER: Data type name: CHARACTER             Kind value: 1

  ==== OpenMP parallelism is OFF ====
 
  ==== Using MPI-2 specifications ==== 
  MPI-IO support is ON
  xmpi_tag_ub ................   2147483647
  xmpi_bsize_ch ..............            1
  xmpi_bsize_int .............            4
  xmpi_bsize_sp ..............            4
  xmpi_bsize_dp ..............            8
  xmpi_bsize_spc .............            8
  xmpi_bsize_dpc .............           16
  xmpio_bsize_frm ............            4
  xmpi_address_kind ..........            8
  xmpi_offset_kind ...........            8
  MPI_WTICK ..................    1.0000000000000001E-009

================================================================================
== DATASET  1 ==================================================================
-   mpi_nproc: 6, omp_nthreads: -1 (-1 if OMP is not activated)


--- !COMMENT
src_file: m_xgScalapack.F90
src_line: 236
message: |
    xgScalapack in auto mode
...


 getdim_nloc : deduce lmnmax  =  18, lnmax  =   6,
                      lmnmaxso=  18, lnmaxso=   6.
 Exchange-correlation functional for the present dataset will be:
  GGA: Perdew-Burke-Ernzerhof functional - ixc=11
 Citation for XC functional:
  J.P.Perdew, K.Burke, M.Ernzerhof, PRL 77, 3865 (1996)

 Unit cell volume ucvol=  1.7564543E+03 bohr^3
 Angles (23,13,12)=  9.00000000E+01  9.00000000E+01  9.00000000E+01 degrees

 getcut: wavevector=  0.0000  0.0000  0.0000  ngfft=  36  36 128
         ecut(hartree)=     22.500   => boxcut(ratio)=   2.05642
- pspini: atom type   1  psp file is ../../../Psps_for_tests/ATOMICDATA_NC/Sn.psp8
- pspatm: opening atomic psp file    ../../../Psps_for_tests/ATOMICDATA_NC/Sn.psp8
- Sn    ONCVPSP  r_core=  2.27  2.62  1.86
- 50.00000  14.00000    150810                znucl, zion, pspdat
    8   11    2    4       600   0.00000      pspcod,pspxc,lmax,lloc,mmax,r2well
    5.99000000000000    6.50000000000000    0.00000000000000   rchrg,fchrg,qchrg
     nproj     2     2     2
     extension_switch     1
  valence charge integrates to:    13.912521222389802     
  pspatm : epsatm=   32.65190642
         --- l  ekb(1:nproj) -->
             0    5.462393    0.682281
             1    4.443814    0.825686
             2   -5.382195   -1.704077
 pspatm: atomic psp has been read  and splines computed

- pspini: atom type   2  psp file is ../../../Psps_for_tests/ATOMICDATA_NC/Se.psp8
- pspatm: opening atomic psp file    ../../../Psps_for_tests/ATOMICDATA_NC/Se.psp8
- Se    ONCVPSP  r_core=  1.82  1.50  1.91
- 34.00000  16.00000    150729                znucl, zion, pspdat
    8   11    2    4       600   0.00000      pspcod,pspxc,lmax,lloc,mmax,r2well
    5.99000000000000    5.00000000000000    0.00000000000000   rchrg,fchrg,qchrg
     nproj     2     2     2
     extension_switch     1
  valence charge integrates to:    15.981819523532332     
  pspatm : epsatm=   29.53325930
         --- l  ekb(1:nproj) -->
             0    8.612261    0.939919
             1    6.984962    1.281898
             2   -9.322521   -3.856218
 pspatm: atomic psp has been read  and splines computed

- pspini: atom type   3  psp file is ../../../Psps_for_tests/ATOMICDATA_NC/Zn.psp8
- pspatm: opening atomic psp file    ../../../Psps_for_tests/ATOMICDATA_NC/Zn.psp8
- Zn    ONCVPSP  r_core=  1.36  1.66  1.85
- 30.00000  20.00000    161102                znucl, zion, pspdat
    8   11    2    4       600   0.00000      pspcod,pspxc,lmax,lloc,mmax,r2well
    5.99000000000000    2.50000000000000    0.00000000000000   rchrg,fchrg,qchrg
     nproj     2     2     2
     extension_switch     1
  valence charge integrates to:    19.977025053306086     
  pspatm : epsatm=   26.67245340
         --- l  ekb(1:nproj) -->
             0    2.404235   -1.533451
             1   -4.677427   -1.530630
             2   -7.000316   -2.622858
 pspatm: atomic psp has been read  and splines computed

   1.78088523E+04                                ecore*ucvol(ha*bohr**3)
 ==== Info on pseudopotentials ====
  Norm-conserving pseudopotentials
  Number of pseudopotentials ..    3
  Number of types of atoms   ..    3
  Scalar calculation (no spin-orbit term)
  Nonlocal part applied using Legendre polynomials
  Max number of non-local projectors over l and type   2
  Highest angular momentum +1 .......   3
  Max number of (l,n)   components ..   6
  Max number of (l,m,n) components ..   6

 Pseudo-Core Charge Info: 
   Number of radial points for pseudo-core charge .. 2501
   XC core-correction treatment (optnlxccc) ........    1
   Radius for pseudo-core charge for each type ..... 

  - Atom type    1 has pseudo-core radius ..  5.9900
  - Atom type    2 has pseudo-core radius ..  5.9900
  - Atom type    3 has pseudo-core radius ..  5.9900

 Info on the Q-grid used for form factors in spline form: 
   Number of q-points for radial functions ffspl ..   6225
   Number of q-points for vlspl ...................   6225
   vloc is computed in Reciprocal Space
   model core charge treated in real-space

  XC functional for type 1 is 11
  Pseudo valence available: yes
  XC functional for type 2 is 11
  Pseudo valence available: yes
  XC functional for type 3 is 11
  Pseudo valence available: yes

 wfconv:    52 bands initialized randomly with npw=  8976, for ikpt=     1
 wfconv:    52 bands initialized randomly with npw=  8974, for ikpt=     2
 wfconv:    52 bands initialized randomly with npw=  8945, for ikpt=     3
 wfconv:    52 bands initialized randomly with npw=  8951, for ikpt=     4
 wfconv:    52 bands initialized randomly with npw=  8955, for ikpt=     5
_setup2: Arith. and geom. avg. npw (full set) are    8954.140    8954.134
 initro: for itypat=  1, take pseudo charge density from pp file
 initro: for itypat=  2, take pseudo charge density from pp file
 initro: for itypat=  3, take pseudo charge density from pp file

================================================================================

 getcut: wavevector=  0.0000  0.0000  0.0000  ngfft=  36  36 128
         ecut(hartree)=     22.500   => boxcut(ratio)=   2.05642

 1/G**2 cut-off applied in the following step : cutoff-mode = CRYSTAL

  --------------------------------------------------------------
  Van der Waals DFT-D2 semi-empirical dispersion potential added
      with following parameters:
      Specie  C6 (J.nm^6.mol^-1)  R0 (Ang)
      ------------------------------------
         Sn           38.71         1.804
         Se           12.64         1.771
         Zn           10.80         1.562

      Scaling factor   =   0.75
      Damping parameter=  20.00
      Cut-off radius   = 130.92 bohr

      Number of pairs contributing =   112698
      DFT-D2 energy contribution   =   -3.83849E-02 Ha
  --------------------------------------------------------------


 1/G**2 cut-off applied in the following step : cutoff-mode = CRYSTAL

 1/G**2 cut-off applied in the following step : cutoff-mode = CRYSTAL

--- !WARNING
src_file: m_drivexc.F90
src_line: 707
message: |
    Density went too small (lower than xc_denpos) at 16910 points
    and was set to xc_denpos =   1.00E-14. Lowest was  -0.73E-03.
    Likely due to too low boxcut or too low ecut for pseudopotential core charge.
...


 ITER STEP NUMBER     1
 vtorho: nnsclo_now = 2, note that nnsclo, dbl_nnsclo, istep= 0 0 1
 Total charge density [el/Bohr^3]
      Maximum=    3.2819E+00  at reduced coord.    0.9722    0.9722    0.6094
      Minimum=    5.0591E-03  at reduced coord.    0.3056    0.1944    0.9766
   Integrated=    1.0200E+02

 1/G**2 cut-off applied in the following step : cutoff-mode = CRYSTAL
 ETOT  1  -758.33521129880    -7.583E+02 1.150E+00 2.026E+06
 scprqt: <Vxc>= -3.3558880E-01 hartree

 Simple mixing update:
  residual square of the potential:    61455.795163964918
 scfcv_core: previous iteration took 38.44 [s]

 ITER STEP NUMBER     2
 vtorho: nnsclo_now = 2, note that nnsclo, dbl_nnsclo, istep= 0 0 2
 Total charge density [el/Bohr^3]
      Maximum=    5.7052E+00  at reduced coord.    0.5000    0.5556    0.6094
      Minimum=    1.3444E-04  at reduced coord.    0.5000    0.0000    0.9688
   Integrated=    1.0200E+02
 ETOT  2  -531.95527328517     2.264E+02 1.205E+00 1.122E+07
 scprqt: <Vxc>= -2.1444461E-01 hartree

 Pulay update with  1 previous iterations:
 mixing of old trial potential: alpha(m:m-4)=  0.309      0.691
 scfcv_core: previous iteration took 37.57 [s]

 ITER STEP NUMBER     3
 vtorho: nnsclo_now = 1, note that nnsclo, dbl_nnsclo, istep= 0 0 3
 Total charge density [el/Bohr^3]
      Maximum=    5.0187E+00  at reduced coord.    0.9722    0.9444    0.5938
      Minimum=    6.9420E-05  at reduced coord.    0.0000    0.1389    0.9453
   Integrated=    1.0200E+02
 ETOT  3  -807.69338871697    -2.757E+02 1.913E+00 1.112E+06
 scprqt: <Vxc>= -2.2496681E-01 hartree

 Pulay update with  2 previous iterations:
 mixing of old trial potential: alpha(m:m-4)=  0.688     -0.707E-01  0.382
 scfcv_core: previous iteration took 20.69 [s]

 ITER STEP NUMBER     4
 vtorho: nnsclo_now = 1, note that nnsclo, dbl_nnsclo, istep= 0 0 4
 Total charge density [el/Bohr^3]
      Maximum=    4.4353E+00  at reduced coord.    0.9722    0.9444    0.6094
      Minimum=    2.0579E-05  at reduced coord.    0.5000    0.0000    0.0547
   Integrated=    1.0200E+02
 ETOT  4  -851.40842319510    -4.372E+01 8.271E-01 6.623E+04
 scprqt: <Vxc>= -2.1955769E-01 hartree

 Pulay update with  3 previous iterations:
 mixing of old trial potential: alpha(m:m-4)=  0.471      0.218      0.140E-01  0.297
 scfcv_core: previous iteration took 18.40 [s]

 ITER STEP NUMBER     5
 vtorho: nnsclo_now = 1, note that nnsclo, dbl_nnsclo, istep= 0 0 5
 Total charge density [el/Bohr^3]
      Maximum=    4.3361E+00  at reduced coord.    0.9722    0.9444    0.6094
      Minimum=    8.6543E-06  at reduced coord.    0.1944    0.3056    0.0000
   Integrated=    1.0200E+02
 ETOT  5  -854.34307110382    -2.935E+00 6.548E-02 2.942E+04
 scprqt: <Vxc>= -2.1831404E-01 hartree

 Pulay update with  4 previous iterations:
 mixing of old trial potential: alpha(m:m-4)=  0.592      0.132     -0.263E-01  0.696E-01  0.232
 scfcv_core: previous iteration took 18.24 [s]

 ITER STEP NUMBER     6
 vtorho: nnsclo_now = 1, note that nnsclo, dbl_nnsclo, istep= 0 0 6
 Total charge density [el/Bohr^3]
      Maximum=    4.3071E+00  at reduced coord.    0.9722    0.9444    0.6094
      Minimum=    7.0148E-06  at reduced coord.    0.1944    0.3056    0.0000
   Integrated=    1.0200E+02
 ETOT  6  -854.11317960228     2.299E-01 2.663E-02 5.557E+04
 scprqt: <Vxc>= -2.2137522E-01 hartree

 Pulay update with  5 previous iterations:
 mixing of old trial potential: alpha(m:m-4)=  0.981     -0.571E-01 -0.342E-01 -0.749E-01  0.278E-01
 scfcv_core: previous iteration took 18.19 [s]

 ITER STEP NUMBER     7
 vtorho: nnsclo_now = 1, note that nnsclo, dbl_nnsclo, istep= 0 0 7
 Total charge density [el/Bohr^3]
      Maximum=    4.2536E+00  at reduced coord.    0.9722    0.9444    0.6094
      Minimum=    6.9175E-06  at reduced coord.    0.1944    0.3056    0.0000
   Integrated=    1.0200E+02
 ETOT  7  -854.57440896277    -4.612E-01 1.235E-02 4.997E+04
 scprqt: <Vxc>= -2.2473920E-01 hartree

 Pulay update with  6 previous iterations:
 mixing of old trial potential: alpha(m:m-4)=  0.687      0.296     -0.421E-01 -0.177E-01 -0.474E-01
 scfcv_core: previous iteration took 18.01 [s]

 ITER STEP NUMBER     8
 vtorho: nnsclo_now = 1, note that nnsclo, dbl_nnsclo, istep= 0 0 8
 Total charge density [el/Bohr^3]
      Maximum=    4.2150E+00  at reduced coord.    0.9722    0.9444    0.6094
      Minimum=    6.6355E-06  at reduced coord.    0.1944    0.3056    0.0000
   Integrated=    1.0200E+02
 ETOT  8  -854.94648714863    -3.721E-01 5.266E-03 4.082E+04
 scprqt: <Vxc>= -2.2657901E-01 hartree

 Pulay update with  7 previous iterations:
 mixing of old trial potential: alpha(m:m-4)=  0.570      0.176      0.160      0.111E-01 -0.806E-02
 scfcv_core: previous iteration took 18.03 [s]

 ITER STEP NUMBER     9
 vtorho: nnsclo_now = 1, note that nnsclo, dbl_nnsclo, istep= 0 0 9
 Total charge density [el/Bohr^3]
      Maximum=    4.2033E+00  at reduced coord.    0.9722    0.9444    0.6094
      Minimum=    6.6399E-06  at reduced coord.    0.1944    0.3056    0.0000
   Integrated=    1.0200E+02
 ETOT  9  -855.23939747387    -2.929E-01 2.993E-03 2.935E+04
 scprqt: <Vxc>= -2.2686453E-01 hartree

 Pulay update with  7 previous iterations:
 mixing of old trial potential: alpha(m:m-4)=   3.64      -1.78     -0.485     -0.194     -0.148
 scfcv_core: previous iteration took 18.05 [s]

 ITER STEP NUMBER    10
 vtorho: nnsclo_now = 1, note that nnsclo, dbl_nnsclo, istep= 0 0 10
 Total charge density [el/Bohr^3]
      Maximum=    4.0781E+00  at reduced coord.    0.9722    0.9444    0.6094
      Minimum=    7.1711E-06  at reduced coord.    0.1944    0.3056    0.0000
   Integrated=    1.0200E+02
 ETOT 10  -856.08515906909    -8.458E-01 1.261E-02 5.782E+02
 scprqt: <Vxc>= -2.3300536E-01 hartree

 Pulay update with  7 previous iterations:
 mixing of old trial potential: alpha(m:m-4)=  0.329       2.23      -1.03     -0.374     -0.845E-01
 scfcv_core: previous iteration took 18.05 [s]

 ITER STEP NUMBER    11
 vtorho: nnsclo_now = 1, note that nnsclo, dbl_nnsclo, istep= 0 0 11
 Total charge density [el/Bohr^3]
      Maximum=    4.0891E+00  at reduced coord.    0.9722    0.9444    0.6094
      Minimum=    6.8182E-06  at reduced coord.    0.1944    0.3056    0.0000
   Integrated=    1.0200E+02
 ETOT 11  -856.08641073390    -1.252E-03 5.987E-03 7.211E+02
 scprqt: <Vxc>= -2.3277376E-01 hartree

 Pulay update with  7 previous iterations:
 mixing of old trial potential: alpha(m:m-4)=   1.54     -0.787       1.45     -0.609     -0.476
 scfcv_core: previous iteration took 18.08 [s]

 ITER STEP NUMBER    12
 vtorho: nnsclo_now = 1, note that nnsclo, dbl_nnsclo, istep= 0 0 12
 Total charge density [el/Bohr^3]
      Maximum=    4.0839E+00  at reduced coord.    0.9722    0.9444    0.6094
      Minimum=    7.2117E-06  at reduced coord.    0.0000    0.0000    0.0000
   Integrated=    1.0200E+02
 ETOT 12  -856.09201120903    -5.600E-03 4.928E-03 3.361E+02
 scprqt: <Vxc>= -2.3277913E-01 hartree

 Pulay update with  7 previous iterations:
 mixing of old trial potential: alpha(m:m-4)=  0.873      0.593     -0.629      0.626     -0.118
 scfcv_core: previous iteration took 18.06 [s]

 ITER STEP NUMBER    13
 vtorho: nnsclo_now = 1, note that nnsclo, dbl_nnsclo, istep= 0 0 13
 Total charge density [el/Bohr^3]
      Maximum=    4.0917E+00  at reduced coord.    0.9722    0.9444    0.6094
      Minimum=    7.2406E-06  at reduced coord.    0.1944    0.3056    0.0000
   Integrated=    1.0200E+02
 ETOT 13  -856.09313544793    -1.124E-03 1.507E-03 2.522E+02
 scprqt: <Vxc>= -2.3301468E-01 hartree

 Pulay update with  7 previous iterations:
 mixing of old trial potential: alpha(m:m-4)=   1.02      0.111      0.134     -0.323     -0.252E-01
 scfcv_core: previous iteration took 18.08 [s]

 ITER STEP NUMBER    14
 vtorho: nnsclo_now = 1, note that nnsclo, dbl_nnsclo, istep= 0 0 14
 Total charge density [el/Bohr^3]
      Maximum=    4.0879E+00  at reduced coord.    0.9722    0.9444    0.6094
      Minimum=    7.3986E-06  at reduced coord.    0.0000    0.0000    0.0000
   Integrated=    1.0200E+02
 ETOT 14  -856.09494778916    -1.812E-03 5.172E-03 1.195E+02
 scprqt: <Vxc>= -2.3323261E-01 hartree

 Pulay update with  7 previous iterations:
 mixing of old trial potential: alpha(m:m-4)=  0.914      0.145      0.425E-01  0.816E-01 -0.161
 scfcv_core: previous iteration took 18.10 [s]

 ITER STEP NUMBER    15
 vtorho: nnsclo_now = 1, note that nnsclo, dbl_nnsclo, istep= 0 0 15
 Total charge density [el/Bohr^3]
      Maximum=    4.0900E+00  at reduced coord.    0.9722    0.9444    0.6094
      Minimum=    7.5019E-06  at reduced coord.    0.0000    0.0000    0.0000
   Integrated=    1.0200E+02
 ETOT 15  -856.09589597131    -9.482E-04 5.692E-04 4.435E+01
 scprqt: <Vxc>= -2.3337409E-01 hartree

 Pulay update with  7 previous iterations:
 mixing of old trial potential: alpha(m:m-4)=   1.26     -0.468      0.187      0.732E-01 -0.285E-02
 scfcv_core: previous iteration took 18.07 [s]

 ITER STEP NUMBER    16
 vtorho: nnsclo_now = 1, note that nnsclo, dbl_nnsclo, istep= 0 0 16
 Total charge density [el/Bohr^3]
      Maximum=    4.0899E+00  at reduced coord.    0.9722    0.9444    0.6094
      Minimum=    7.6216E-06  at reduced coord.    0.0000    0.0000    0.0000
   Integrated=    1.0200E+02
 ETOT 16  -856.09587176703     2.420E-05 1.009E-03 3.942E+01
 scprqt: <Vxc>= -2.3344922E-01 hartree

 Pulay update with  7 previous iterations:
 mixing of old trial potential: alpha(m:m-4)=   1.45      0.334E-01 -0.609      0.182     -0.516E-01
 scfcv_core: previous iteration took 18.39 [s]

 ITER STEP NUMBER    17
 vtorho: nnsclo_now = 1, note that nnsclo, dbl_nnsclo, istep= 0 0 17
 Total charge density [el/Bohr^3]
      Maximum=    4.0897E+00  at reduced coord.    0.9722    0.9444    0.6094
      Minimum=    7.8620E-06  at reduced coord.    0.0000    0.0000    0.0000
   Integrated=    1.0200E+02
 ETOT 17  -856.09498673964     8.850E-04 2.074E-04 5.869E+01
 scprqt: <Vxc>= -2.3384927E-01 hartree

 Pulay update with  7 previous iterations:
 mixing of old trial potential: alpha(m:m-4)=  0.209       1.07     -0.281E-01 -0.365      0.205
 scfcv_core: previous iteration took 17.96 [s]

 ITER STEP NUMBER    18
 vtorho: nnsclo_now = 1, note that nnsclo, dbl_nnsclo, istep= 0 0 18
 Total charge density [el/Bohr^3]
      Maximum=    4.0886E+00  at reduced coord.    0.9722    0.9444    0.6094
      Minimum=    7.7500E-06  at reduced coord.    0.0000    0.0000    0.0000
   Integrated=    1.0200E+02
 ETOT 18  -856.09615140976    -1.165E-03 1.979E-04 9.119E+00
 scprqt: <Vxc>= -2.3364413E-01 hartree

 Pulay update with  7 previous iterations:
 mixing of old trial potential: alpha(m:m-4)=   1.03      0.405E-01  0.520E-01 -0.124     -0.245E-01
 scfcv_core: previous iteration took 18.17 [s]

 ITER STEP NUMBER    19
 vtorho: nnsclo_now = 1, note that nnsclo, dbl_nnsclo, istep= 0 0 19
 Total charge density [el/Bohr^3]
      Maximum=    4.0898E+00  at reduced coord.    0.9722    0.9444    0.6094
      Minimum=    7.9226E-06  at reduced coord.    0.0000    0.0000    0.0000
   Integrated=    1.0200E+02
 ETOT 19  -856.09570715982     4.442E-04 9.368E-05 2.406E+01
 scprqt: <Vxc>= -2.3387132E-01 hartree

 Pulay update with  7 previous iterations:
 mixing of old trial potential: alpha(m:m-4)=   1.22      0.743     -0.793     -0.640E-01 -0.762E-01
 scfcv_core: previous iteration took 18.30 [s]

 ITER STEP NUMBER    20
 vtorho: nnsclo_now = 1, note that nnsclo, dbl_nnsclo, istep= 0 0 20
 Total charge density [el/Bohr^3]
      Maximum=    4.0894E+00  at reduced coord.    0.9722    0.9444    0.6094
      Minimum=    7.9622E-06  at reduced coord.    0.0000    0.0000    0.0000
   Integrated=    1.0200E+02
 ETOT 20  -856.09619736633    -4.902E-04 1.556E-04 1.670E+00
 scprqt: <Vxc>= -2.3383713E-01 hartree

 Pulay update with  7 previous iterations:
 mixing of old trial potential: alpha(m:m-4)=   1.10      0.464E-01  0.546E-01 -0.226      0.537E-01
 scfcv_core: previous iteration took 18.30 [s]

 ITER STEP NUMBER    21
 vtorho: nnsclo_now = 1, note that nnsclo, dbl_nnsclo, istep= 0 0 21
 Total charge density [el/Bohr^3]
      Maximum=    4.0893E+00  at reduced coord.    0.9722    0.9444    0.6094
      Minimum=    8.0137E-06  at reduced coord.    0.0000    0.0000    0.0000
   Integrated=    1.0200E+02
 ETOT 21  -856.09612136948     7.600E-05 1.058E-04 4.382E+00
 scprqt: <Vxc>= -2.3390559E-01 hartree

 Pulay update with  7 previous iterations:
 mixing of old trial potential: alpha(m:m-4)=   1.29      0.568E-01 -0.447      0.117     -0.623E-01
 scfcv_core: previous iteration took 18.31 [s]

 ITER STEP NUMBER    22
 vtorho: nnsclo_now = 1, note that nnsclo, dbl_nnsclo, istep= 0 0 22
 Total charge density [el/Bohr^3]
      Maximum=    4.0895E+00  at reduced coord.    0.9722    0.9444    0.6094
      Minimum=    8.0053E-06  at reduced coord.    0.0000    0.0000    0.0000
   Integrated=    1.0200E+02
 ETOT 22  -856.09622462629    -1.033E-04 1.849E-04 1.010E-01
 scprqt: <Vxc>= -2.3385318E-01 hartree

 Pulay update with  7 previous iterations:
 mixing of old trial potential: alpha(m:m-4)=  0.590      0.446      0.808E-01 -0.760E-01  0.720E-01
 scfcv_core: previous iteration took 20.89 [s]

 ITER STEP NUMBER    23
 vtorho: nnsclo_now = 1, note that nnsclo, dbl_nnsclo, istep= 0 0 23
 Total charge density [el/Bohr^3]
      Maximum=    4.0892E+00  at reduced coord.    0.9722    0.9444    0.6094
      Minimum=    8.0238E-06  at reduced coord.    0.0000    0.0000    0.0000
   Integrated=    1.0200E+02
[...]
           nbdbuf2          2
           nbdbuf3          2
           nbdbuf4          2
           nbdbuf5          2
           nbdbuf6          2
           ndtset           6
            ngfft          36      36     128
             nkpt1         30
             nkpt2         30
             nkpt3        200
             nkpt4        200
             nkpt5        200
             nkpt6        200
            nline1          4
            nline2          4
            nline3          4
            nline4          0
            nline5          0
            nline6          0
             nqpt1          0
             nqpt2          0
             nqpt3          0
             nqpt4          1
             nqpt5          1
             nqpt6          1
            nstep1        400
            nstep2        200
            nstep3        200
            nstep4          1
            nstep5          1
            nstep6          1
             nsym           8
           ntypat           3
              occ1     2.000000  2.000000  2.000000  2.000000  2.000000  2.000000
                       2.000000  2.000000  2.000000  2.000000  2.000000  2.000000
                       2.000000  2.000000  2.000000  2.000000  2.000000  2.000000
                       2.000000  2.000000  2.000000  2.000000  2.000000  2.000000
                       2.000000  2.000000  2.000000  2.000000  2.000000  2.000000
                       2.000000  2.000000  2.000000  2.000000  2.000000  2.000000
                       2.000000  2.000000  2.000000  2.000000  2.000000  2.000000
                       2.000000  2.000000  2.000000  2.000000  2.000000  2.000000
                       2.000000  2.000000  2.000000  0.000000
              occ4     2.000000  2.000000  2.000000  2.000000  2.000000  2.000000
                       2.000000  2.000000  2.000000  2.000000  2.000000  2.000000
                       2.000000  2.000000  2.000000  2.000000  2.000000  2.000000
                       2.000000  2.000000  2.000000  2.000000  2.000000  2.000000
                       2.000000  2.000000  2.000000  2.000000  2.000000  2.000000
                       2.000000  2.000000  2.000000  2.000000  2.000000  2.000000
                       2.000000  2.000000  2.000000  2.000000  2.000000  2.000000
                       2.000000  2.000000  2.000000  2.000000  2.000000  2.000000
                       2.000000  2.000000  2.000000  0.000000  0.000000  0.000000
                       0.000000  0.000000  0.000000  0.000000  0.000000  0.000000
                       0.000000  0.000000  0.000000  0.000000  0.000000  0.000000
                       0.000000  0.000000  0.000000  0.000000  0.000000  0.000000
                       0.000000  0.000000  0.000000  0.000000  0.000000  0.000000
                       0.000000  0.000000  0.000000  0.000000  0.000000  0.000000
                       0.000000  0.000000  0.000000  0.000000  0.000000  0.000000
                       0.000000  0.000000  0.000000  0.000000  0.000000  0.000000
                       0.000000  0.000000  0.000000  0.000000  0.000000  0.000000
                       0.000000  0.000000  0.000000  0.000000  0.000000  0.000000
                       0.000000  0.000000  0.000000  0.000000  0.000000  0.000000
                       0.000000  0.000000  0.000000  0.000000  0.000000  0.000000
              occ5     2.000000  2.000000  2.000000  2.000000  2.000000  2.000000
                       2.000000  2.000000  2.000000  2.000000  2.000000  2.000000
                       2.000000  2.000000  2.000000  2.000000  2.000000  2.000000
                       2.000000  2.000000  2.000000  2.000000  2.000000  2.000000
                       2.000000  2.000000  2.000000  2.000000  2.000000  2.000000
                       2.000000  2.000000  2.000000  2.000000  2.000000  2.000000
                       2.000000  2.000000  2.000000  2.000000  2.000000  2.000000
                       2.000000  2.000000  2.000000  2.000000  2.000000  2.000000
                       2.000000  2.000000  2.000000  0.000000  0.000000  0.000000
                       0.000000  0.000000  0.000000  0.000000  0.000000  0.000000
                       0.000000  0.000000  0.000000  0.000000  0.000000  0.000000
                       0.000000  0.000000  0.000000  0.000000  0.000000  0.000000
                       0.000000  0.000000  0.000000  0.000000  0.000000  0.000000
                       0.000000  0.000000  0.000000  0.000000  0.000000  0.000000
                       0.000000  0.000000  0.000000  0.000000  0.000000  0.000000
                       0.000000  0.000000  0.000000  0.000000  0.000000  0.000000
                       0.000000  0.000000  0.000000  0.000000  0.000000  0.000000
                       0.000000  0.000000  0.000000  0.000000  0.000000  0.000000
                       0.000000  0.000000  0.000000  0.000000  0.000000  0.000000
                       0.000000  0.000000  0.000000  0.000000  0.000000  0.000000
              occ6     2.000000  2.000000  2.000000  2.000000  2.000000  2.000000
                       2.000000  2.000000  2.000000  2.000000  2.000000  2.000000
                       2.000000  2.000000  2.000000  2.000000  2.000000  2.000000
                       2.000000  2.000000  2.000000  2.000000  2.000000  2.000000
                       2.000000  2.000000  2.000000  2.000000  2.000000  2.000000
                       2.000000  2.000000  2.000000  2.000000  2.000000  2.000000
                       2.000000  2.000000  2.000000  2.000000  2.000000  2.000000
                       2.000000  2.000000  2.000000  2.000000  2.000000  2.000000
                       2.000000  2.000000  2.000000  0.000000  0.000000  0.000000
                       0.000000  0.000000  0.000000  0.000000  0.000000  0.000000
                       0.000000  0.000000  0.000000  0.000000  0.000000  0.000000
                       0.000000  0.000000  0.000000  0.000000  0.000000  0.000000
                       0.000000  0.000000  0.000000  0.000000  0.000000  0.000000
                       0.000000  0.000000  0.000000  0.000000  0.000000  0.000000
                       0.000000  0.000000  0.000000  0.000000  0.000000  0.000000
                       0.000000  0.000000  0.000000  0.000000  0.000000  0.000000
                       0.000000  0.000000  0.000000  0.000000  0.000000  0.000000
                       0.000000  0.000000  0.000000  0.000000  0.000000  0.000000
                       0.000000  0.000000  0.000000  0.000000  0.000000  0.000000
                       0.000000  0.000000  0.000000  0.000000  0.000000  0.000000
        optdriver1          0
        optdriver2          0
        optdriver3          0
        optdriver4          1
        optdriver5          1
        optdriver6          1
            prtwf1          1
            prtwf2          1
            prtwf3          1
            prtwf4          3
            prtwf5          3
            prtwf6          3
            rfdir1          0       0       0
            rfdir2          0       0       0
            rfdir3          0       0       0
            rfdir4          1       0       0
            rfdir5          0       1       0
            rfdir6          0       0       1
           rfelfd1          0
           rfelfd2          0
           rfelfd3          0
           rfelfd4          2
           rfelfd5          2
           rfelfd6          2
            rprim      1.0000000000E+00  0.0000000000E+00  0.0000000000E+00
                       0.0000000000E+00  1.0000000000E+00  0.0000000000E+00
                       0.0000000000E+00  0.0000000000E+00  3.7552899407E+00
           shiftk      5.00000000E-01  5.00000000E-01  5.00000000E-01
          spgroup          99
           strten1     1.3213522952E-02  1.3213522952E-02  1.3236361749E-02
                       0.0000000000E+00  0.0000000000E+00  0.0000000000E+00
           symrel      1  0  0   0  1  0   0  0  1       1  0  0   0 -1  0   0  0  1
                      -1  0  0   0 -1  0   0  0  1      -1  0  0   0  1  0   0  0  1
                       0  1  0   1  0  0   0  0  1       0  1  0  -1  0  0   0  0  1
                       0 -1  0  -1  0  0   0  0  1       0 -1  0   1  0  0   0  0  1
            tnons      0.0000000  0.0000000  0.0000000     0.0000000  0.0000000  0.0000000
                       0.0000000  0.0000000  0.0000000     0.0000000  0.0000000  0.0000000
                       0.5000000  0.5000000  0.0000000     0.5000000  0.5000000  0.0000000
                       0.5000000  0.5000000  0.0000000     0.5000000  0.5000000  0.0000000
           tolwfr      1.00000000E-20
            typat      1  2  2  2  3  3
           vdw_xc           5
              wtk1       0.02000    0.04000    0.04000    0.04000    0.04000    0.02000
                         0.04000    0.04000    0.04000    0.02000    0.04000    0.04000
                         0.02000    0.04000    0.02000    0.02000    0.04000    0.04000
                         0.04000    0.04000    0.02000    0.04000    0.04000    0.04000
                         0.02000    0.04000    0.04000    0.02000    0.04000    0.02000
              wtk2       0.02000    0.04000    0.04000    0.04000    0.04000    0.02000
                         0.04000    0.04000    0.04000    0.02000    0.04000    0.04000
                         0.02000    0.04000    0.02000    0.02000    0.04000    0.04000
                         0.04000    0.04000    0.02000    0.04000    0.04000    0.04000
                         0.02000    0.04000    0.04000    0.02000    0.04000    0.02000
              wtk3       0.00500    0.00500    0.00500    0.00500    0.00500    0.00500
                         0.00500    0.00500    0.00500    0.00500    0.00500    0.00500
                         0.00500    0.00500    0.00500    0.00500    0.00500    0.00500
                         0.00500    0.00500    0.00500    0.00500    0.00500    0.00500
                         0.00500    0.00500    0.00500    0.00500    0.00500    0.00500
                         0.00500    0.00500    0.00500    0.00500    0.00500    0.00500
                         0.00500    0.00500    0.00500    0.00500    0.00500    0.00500
                         0.00500    0.00500    0.00500    0.00500    0.00500    0.00500
                         0.00500    0.00500
              wtk4       0.00500    0.00500    0.00500    0.00500    0.00500    0.00500
                         0.00500    0.00500    0.00500    0.00500    0.00500    0.00500
                         0.00500    0.00500    0.00500    0.00500    0.00500    0.00500
                         0.00500    0.00500    0.00500    0.00500    0.00500    0.00500
                         0.00500    0.00500    0.00500    0.00500    0.00500    0.00500
                         0.00500    0.00500    0.00500    0.00500    0.00500    0.00500
                         0.00500    0.00500    0.00500    0.00500    0.00500    0.00500
                         0.00500    0.00500    0.00500    0.00500    0.00500    0.00500
                         0.00500    0.00500
              wtk5       0.00500    0.00500    0.00500    0.00500    0.00500    0.00500
                         0.00500    0.00500    0.00500    0.00500    0.00500    0.00500
                         0.00500    0.00500    0.00500    0.00500    0.00500    0.00500
                         0.00500    0.00500    0.00500    0.00500    0.00500    0.00500
                         0.00500    0.00500    0.00500    0.00500    0.00500    0.00500
                         0.00500    0.00500    0.00500    0.00500    0.00500    0.00500
                         0.00500    0.00500    0.00500    0.00500    0.00500    0.00500
                         0.00500    0.00500    0.00500    0.00500    0.00500    0.00500
                         0.00500    0.00500
              wtk6       0.00500    0.00500    0.00500    0.00500    0.00500    0.00500
                         0.00500    0.00500    0.00500    0.00500    0.00500    0.00500
                         0.00500    0.00500    0.00500    0.00500    0.00500    0.00500
                         0.00500    0.00500    0.00500    0.00500    0.00500    0.00500
                         0.00500    0.00500    0.00500    0.00500    0.00500    0.00500
                         0.00500    0.00500    0.00500    0.00500    0.00500    0.00500
                         0.00500    0.00500    0.00500    0.00500    0.00500    0.00500
                         0.00500    0.00500    0.00500    0.00500    0.00500    0.00500
                         0.00500    0.00500
                       outvars : Printing only first  50 k-points.
           xangst      2.0538509643E+00  0.0000000000E+00  4.6664635074E+00
                       0.0000000000E+00  2.0538509643E+00  4.6982402675E+00
                       2.0538509643E+00  0.0000000000E+00  7.7691247742E+00
                       0.0000000000E+00  2.0538509643E+00  1.0759148224E+01
                       2.0538509643E+00  2.0538509643E+00  9.2641442120E+00
                       0.0000000000E+00  0.0000000000E+00  9.2641442120E+00
            xcart      3.8812158402E+00  0.0000000000E+00  8.8183380380E+00
                       0.0000000000E+00  3.8812158402E+00  8.8783874121E+00
                       3.8812158402E+00  0.0000000000E+00  1.4681518115E+01
                       0.0000000000E+00  3.8812158402E+00  2.0331843567E+01
                       3.8812158402E+00  3.8812158402E+00  1.7506695416E+01
                       0.0000000000E+00  0.0000000000E+00  1.7506695416E+01
             xred      5.0000000000E-01  0.0000000000E+00  3.0251400000E-01
                       0.0000000000E+00  5.0000000000E-01  3.0457400000E-01
                       5.0000000000E-01  0.0000000000E+00  5.0365100000E-01
                       0.0000000000E+00  5.0000000000E-01  6.9748600000E-01
                       5.0000000000E-01  5.0000000000E-01  6.0056900000E-01
                       0.0000000000E+00  0.0000000000E+00  6.0056900000E-01
            znucl       50.00000   34.00000   30.00000

================================================================================
  

================================================================================

 Suggested references for the acknowledgment of ABINIT usage.

 The users of ABINIT have little formal obligations with respect to the ABINIT group
 (those specified in the GNU General Public License, http://www.gnu.org/copyleft/gpl.txt).
 However, it is common practice in the scientific literature,
 to acknowledge the efforts of people that have made the research possible.
 In this spirit, please find below suggested citations of work written by ABINIT developers,
 corresponding to implementations inside of ABINIT that you have used in the present run.
 Note also that it will be of great value to readers of publications presenting these results,
 to read papers enabling them to understand the theoretical formalism and details
 of the ABINIT implementation.
 For information on why they are suggested, see also https://docs.abinit.org/theory/acknowledgments.
-
- [1] The Abinit project: Impact, environment and recent developments.
- Computer Phys. Comm. 248, 107042 (2020).
- X.Gonze, B. Amadon, G. Antonius, F.Arnardi, L.Baguet, J.-M.Beuken,
- J.Bieder, F.Bottin, J.Bouchet, E.Bousquet, N.Brouwer, F.Bruneval,
- G.Brunin, T.Cavignac, J.-B. Charraud, Wei Chen, M.Cote, S.Cottenier,
- J.Denier, G.Geneste, Ph.Ghosez, M.Giantomassi, Y.Gillet, O.Gingras,
- D.R.Hamann, G.Hautier, Xu He, N.Helbig, N.Holzwarth, Y.Jia, F.Jollet,
- W.Lafargue-Dit-Hauret, K.Lejaeghere, M.A.L.Marques, A.Martin, C.Martins,
- H.P.C. Miranda, F.Naccarato, K. Persson, G.Petretto, V.Planes, Y.Pouillon,
- S.Prokhorenko, F.Ricci, G.-M.Rignanese, A.H.Romero, M.M.Schmitt, M.Torrent,
- M.J.van Setten, B.Van Troeye, M.J.Verstraete, G.Zerah and J.W.Zwanzig
- Comment: the fifth generic paper describing the ABINIT project.
- Note that a version of this paper, that is not formatted for Computer Phys. Comm. 
- is available at https://www.abinit.org/sites/default/files/ABINIT20.pdf .
- The licence allows the authors to put it on the Web.
- DOI and bibtex: see https://docs.abinit.org/theory/bibliography/#gonze2020
-
- [2] First-principles responses of solids to atomic displacements and homogeneous electric fields:,
- implementation of a conjugate-gradient algorithm. X. Gonze, Phys. Rev. B55, 10337 (1997).
- Comment: Non-vanishing rfphon and/or rfelfd, in the norm-conserving case.
- DOI and bibtex: see https://docs.abinit.org/theory/bibliography/#gonze1997
-
- [3] Dynamical matrices, Born effective charges, dielectric permittivity tensors, and ,
- interatomic force constants from density-functional perturbation theory,
- X. Gonze and C. Lee, Phys. Rev. B55, 10355 (1997).
- Comment: Non-vanishing rfphon and/or rfelfd, in the norm-conserving case.
- DOI and bibtex: see https://docs.abinit.org/theory/bibliography/#gonze1997a
-
- [4] Optimized norm-conserving Vanderbilt pseudopotentials.
- D.R. Hamann, Phys. Rev. B 88, 085117 (2013).
- Comment: Some pseudopotential generated using the ONCVPSP code were used.
- DOI and bibtex: see https://docs.abinit.org/theory/bibliography/#hamann2013
-
- [5] ABINIT: Overview, and focus on selected capabilities
- J. Chem. Phys. 152, 124102 (2020).
- A. Romero, D.C. Allan, B. Amadon, G. Antonius, T. Applencourt, L.Baguet,
- J.Bieder, F.Bottin, J.Bouchet, E.Bousquet, F.Bruneval,
- G.Brunin, D.Caliste, M.Cote,
- J.Denier, C. Dreyer, Ph.Ghosez, M.Giantomassi, Y.Gillet, O.Gingras,
- D.R.Hamann, G.Hautier, F.Jollet, G. Jomard,
- A.Martin, 
- H.P.C. Miranda, F.Naccarato, G.Petretto, N.A. Pike, V.Planes,
- S.Prokhorenko, T. Rangel, F.Ricci, G.-M.Rignanese, M.Royo, M.Stengel, M.Torrent,
- M.J.van Setten, B.Van Troeye, M.J.Verstraete, J.Wiktor, J.W.Zwanziger, and X.Gonze.
- Comment: a global overview of ABINIT, with focus on selected capabilities .
- Note that a version of this paper, that is not formatted for J. Chem. Phys 
- is available at https://www.abinit.org/sites/default/files/ABINIT20_JPC.pdf .
- The licence allows the authors to put it on the Web.
- DOI and bibtex: see https://docs.abinit.org/theory/bibliography/#romero2020
-
- [6] Recent developments in the ABINIT software package.
- Computer Phys. Comm. 205, 106 (2016).
- X.Gonze, F.Jollet, F.Abreu Araujo, D.Adams, B.Amadon, T.Applencourt,
- C.Audouze, J.-M.Beuken, J.Bieder, A.Bokhanchuk, E.Bousquet, F.Bruneval
- D.Caliste, M.Cote, F.Dahm, F.Da Pieve, M.Delaveau, M.Di Gennaro,
- B.Dorado, C.Espejo, G.Geneste, L.Genovese, A.Gerossier, M.Giantomassi,
- Y.Gillet, D.R.Hamann, L.He, G.Jomard, J.Laflamme Janssen, S.Le Roux,
- A.Levitt, A.Lherbier, F.Liu, I.Lukacevic, A.Martin, C.Martins,
- M.J.T.Oliveira, S.Ponce, Y.Pouillon, T.Rangel, G.-M.Rignanese,
- A.H.Romero, B.Rousseau, O.Rubel, A.A.Shukri, M.Stankovski, M.Torrent,
- M.J.Van Setten, B.Van Troeye, M.J.Verstraete, D.Waroquier, J.Wiktor,
- B.Xu, A.Zhou, J.W.Zwanziger.
- Comment: the fourth generic paper describing the ABINIT project.
- Note that a version of this paper, that is not formatted for Computer Phys. Comm. 
- is available at https://www.abinit.org/sites/default/files/ABINIT16.pdf .
- The licence allows the authors to put it on the Web.
- DOI and bibtex: see https://docs.abinit.org/theory/bibliography/#gonze2016
 Proc.   0 individual time (sec): cpu=       3569.9  wall=       3578.4

 Calculation completed.
.Delivered   6 WARNINGs and   0 COMMENTs to log file.

--- !FinalSummary
program: abinit
version: 9.2.2
start_datetime: Sat Mar 16 14:18:35 2024
end_datetime: Sat Mar 16 15:18:13 2024
overall_cpu_time:       21417.0
overall_wall_time:       21470.0
exit_requested_by_user: no 
timelimit: 0
pseudos: 
    Sn  : c918e999fc214fef37654f9ff7d5f03d
    Se  : f801923bd422df98a30264e8ccc86374
    Zn  : 80c9b4d1484b64588a366a4998a7c40d
usepaw: 0
mpi_procs: 6
omp_threads: 1
num_warnings: 6
num_comments: 0
...
