
.Version 9.2.2 of ABINIT 
.(MPI version, prepared for a x86_64_linux_gnu9.3 computer) 

.Copyright (C) 1998-2020 ABINIT group . 
 ABINIT comes with ABSOLUTELY NO WARRANTY.
 It is free software, and you are welcome to redistribute it
 under certain conditions (GNU General Public License,
 see ~abinit/COPYING or http://www.gnu.org/copyleft/gpl.txt).

 ABINIT is a project of the Universite Catholique de Louvain,
 Corning Inc. and other collaborators, see ~abinit/doc/developers/contributors.txt .
 Please read https://docs.abinit.org/theory/acknowledgments for suggested
 acknowledgments of the ABINIT effort.
 For more information, see https://www.abinit.org .

.Starting date : Tue 27 Feb 2024.
- ( at 09h40 )
  
- The starting date is more than 3 years after the initial release
- of this version of ABINIT, namely Nov 2020.
- This version of ABINIT is not supported anymore.
- Action: please, switch to a more recent version of ABINIT.
- input  file    -> Cs2TiI6.in
- output file    -> Cs2TiI6.out
- root for input  files -> Cs2TiI6i
- root for output files -> Cs2TiI6o


 Symmetries : space group P4 m m (# 99); Bravais tP (primitive tetrag.)
================================================================================
 Values of the parameters that define the memory need of the present run
     intxc =       0    ionmov =       0      iscf =      17    lmnmax =       6
     lnmax =       6     mgfft =     216  mpssoang =       3    mqgrid =   10359
     natom =      14  nloc_mem =       1    nspden =       1   nspinor =       1
    nsppol =       1      nsym =       8    n1xccc =    2501    ntypat =       2
    occopt =       1   xclevel =       2
-    mband =         107        mffmem =           1         mkmem =           2
       mpw =       14938          nfft =      279936          nkpt =          10
================================================================================
P This job should need less than                     148.680 Mbytes of memory.
  Rough estimation (10% accuracy) of disk space for files :
_ WF disk file :    243.893 Mbytes ; DEN or POT disk file :      2.138 Mbytes.
================================================================================

--------------------------------------------------------------------------------
------------- Echo of variables that govern the present computation ------------
--------------------------------------------------------------------------------
-
- outvars: echo of selected default values                                      
-   iomode0 =  0 , fftalg0 =112 , wfoptalg0 =  0
-
- outvars: echo of global parameters not present in the input file              
-  max_nthreads =    0
-
 -outvars: echo values of preprocessed input variables --------
            acell      7.7624316804E+00  7.7624316804E+00  7.7624316804E+00 Bohr
              amu      1.18710000E+02  7.89600000E+01
           diemac      1.20000000E+01
             ecut      2.25000000E+01 Hartree
-          fftalg         112
             iscf          17
              ixc          11
              kpt      6.25000000E-02  6.25000000E-02  5.00000000E-01
                       1.87500000E-01  6.25000000E-02  5.00000000E-01
                       3.12500000E-01  6.25000000E-02  5.00000000E-01
                       4.37500000E-01  6.25000000E-02  5.00000000E-01
                       1.87500000E-01  1.87500000E-01  5.00000000E-01
                       3.12500000E-01  1.87500000E-01  5.00000000E-01
                       4.37500000E-01  1.87500000E-01  5.00000000E-01
                       3.12500000E-01  3.12500000E-01  5.00000000E-01
                       4.37500000E-01  3.12500000E-01  5.00000000E-01
                       4.37500000E-01  4.37500000E-01  5.00000000E-01
         kptrlatt        8    0    0      0    8    0      0    0    1
          kptrlen      6.20994534E+01
P           mkmem           2
            natom          14
            nband         107
            ngfft          36      36     216
             nkpt          10
            nstep         150
             nsym           8
           ntypat           2
              occ      2.000000  2.000000  2.000000  2.000000  2.000000  2.000000
                       2.000000  2.000000  2.000000  2.000000  2.000000  2.000000
                       2.000000  2.000000  2.000000  2.000000  2.000000  2.000000
                       2.000000  2.000000  2.000000  2.000000  2.000000  2.000000
                       2.000000  2.000000  2.000000  2.000000  2.000000  2.000000
                       2.000000  2.000000  2.000000  2.000000  2.000000  2.000000
                       2.000000  2.000000  2.000000  2.000000  2.000000  2.000000
                       2.000000  2.000000  2.000000  2.000000  2.000000  2.000000
                       2.000000  2.000000  2.000000  2.000000  2.000000  2.000000
                       2.000000  2.000000  2.000000  2.000000  2.000000  2.000000
                       2.000000  2.000000  2.000000  2.000000  2.000000  2.000000
                       2.000000  2.000000  2.000000  2.000000  2.000000  2.000000
                       2.000000  2.000000  2.000000  2.000000  2.000000  2.000000
                       2.000000  2.000000  2.000000  2.000000  2.000000  2.000000
                       2.000000  2.000000  2.000000  2.000000  2.000000  2.000000
                       2.000000  2.000000  2.000000  2.000000  2.000000  2.000000
                       2.000000  2.000000  2.000000  2.000000  2.000000  2.000000
                       2.000000  2.000000  2.000000  0.000000  0.000000
           prtcif           1
            rprim      1.0000000000E+00  0.0000000000E+00  0.0000000000E+00
                       0.0000000000E+00  1.0000000000E+00  0.0000000000E+00
                       0.0000000000E+00  0.0000000000E+00  6.2496953284E+00
           shiftk      5.00000000E-01  5.00000000E-01  5.00000000E-01
          spgroup          99
           symrel      1  0  0   0  1  0   0  0  1       1  0  0   0 -1  0   0  0  1
                      -1  0  0   0 -1  0   0  0  1      -1  0  0   0  1  0   0  0  1
                       0  1  0   1  0  0   0  0  1       0  1  0  -1  0  0   0  0  1
                       0 -1  0  -1  0  0   0  0  1       0 -1  0   1  0  0   0  0  1
            tnons      0.0000000  0.0000000  0.0000000     0.0000000  0.0000000  0.0000000
                      -0.0000000  0.0000000  0.0000000    -0.0000000  0.0000000  0.0000000
                       0.5000000  0.5000000  0.0000000     0.5000000  0.5000000  0.0000000
                       0.5000000  0.5000000  0.0000000     0.5000000  0.5000000  0.0000000
           toldfe      1.00000000E-06 Hartree
            typat      1  1  1  1  1  1  1  2  2  2  2  2  2  2
           vdw_xc           5
              wtk        0.06250    0.12500    0.12500    0.12500    0.06250    0.12500
                         0.12500    0.06250    0.12500    0.06250
           xangst      2.0538509643E+00  0.0000000000E+00  4.6664556527E+00
                       0.0000000000E+00  2.0538509643E+00  7.4160942986E+00
                       2.0538509643E+00  0.0000000000E+00  1.0102195028E+01
                       0.0000000000E+00  2.0538509643E+00  1.2851833674E+01
                       2.0538509643E+00  0.0000000000E+00  1.5537934403E+01
                       0.0000000000E+00  2.0538509643E+00  1.8287547377E+01
                       2.0538509643E+00  0.0000000000E+00  2.0973648106E+01
                       0.0000000000E+00  2.0538509643E+00  4.6982374470E+00
                       2.0538509643E+00  0.0000000000E+00  7.3843381762E+00
                       0.0000000000E+00  2.0538509643E+00  1.0133951150E+01
                       2.0538509643E+00  0.0000000000E+00  1.2820051879E+01
                       0.0000000000E+00  2.0538509643E+00  1.5569690525E+01
                       2.0538509643E+00  0.0000000000E+00  1.8255791255E+01
                       0.0000000000E+00  2.0538509643E+00  2.1005429901E+01
            xcart      3.8812158402E+00  0.0000000000E+00  8.8183231948E+00
                       0.0000000000E+00  3.8812158402E+00  1.4014387200E+01
                       3.8812158402E+00  0.0000000000E+00  1.9090381944E+01
                       0.0000000000E+00  3.8812158402E+00  2.4286445949E+01
                       3.8812158402E+00  0.0000000000E+00  2.9362440692E+01
                       0.0000000000E+00  3.8812158402E+00  3.4558456185E+01
                       3.8812158402E+00  0.0000000000E+00  3.9634450928E+01
                       0.0000000000E+00  3.8812158402E+00  8.8783820821E+00
                       3.8812158402E+00  0.0000000000E+00  1.3954376826E+01
                       0.0000000000E+00  3.8812158402E+00  1.9150392318E+01
                       3.8812158402E+00  0.0000000000E+00  2.4226387062E+01
                       0.0000000000E+00  3.8812158402E+00  2.9422451067E+01
                       3.8812158402E+00  0.0000000000E+00  3.4498445810E+01
                       0.0000000000E+00  3.8812158402E+00  3.9694509816E+01
             xred      5.0000000000E-01  0.0000000000E+00  1.8177300000E-01
                       0.0000000000E+00  5.0000000000E-01  2.8888000000E-01
                       5.0000000000E-01  0.0000000000E+00  3.9351200000E-01
                       0.0000000000E+00  5.0000000000E-01  5.0061900000E-01
                       5.0000000000E-01  0.0000000000E+00  6.0525100000E-01
                       0.0000000000E+00  5.0000000000E-01  7.1235700000E-01
                       5.0000000000E-01  0.0000000000E+00  8.1698900000E-01
                       0.0000000000E+00  5.0000000000E-01  1.8301100000E-01
                       5.0000000000E-01  0.0000000000E+00  2.8764300000E-01
                       0.0000000000E+00  5.0000000000E-01  3.9474900000E-01
                       5.0000000000E-01  0.0000000000E+00  4.9938100000E-01
                       0.0000000000E+00  5.0000000000E-01  6.0648800000E-01
                       5.0000000000E-01  0.0000000000E+00  7.1112000000E-01
                       0.0000000000E+00  5.0000000000E-01  8.1822700000E-01
            znucl       50.00000   34.00000

================================================================================

 chkinp: Checking input parameters for consistency.

================================================================================
== DATASET  1 ==================================================================
-   mpi_nproc: 6, omp_nthreads: -1 (-1 if OMP is not activated)


--- !DatasetInfo
iteration_state: {dtset: 1, }
dimensions: {natom: 14, nkpt: 10, mband: 107, nsppol: 1, nspinor: 1, nspden: 1, mpw: 14938, }
cutoff_energies: {ecut:  22.5, pawecutdg:  -1.0, }
electrons: {nelect:   2.10000000E+02, charge:   0.00000000E+00, occopt:   1.00000000E+00, tsmear:   1.00000000E-02, }
meta: {optdriver: 0, ionmov: 0, optcell: 0, iscf: 17, paral_kgb: 0, }
...

 Exchange-correlation functional for the present dataset will be:
  GGA: Perdew-Burke-Ernzerhof functional - ixc=11
 Citation for XC functional:
  J.P.Perdew, K.Burke, M.Ernzerhof, PRL 77, 3865 (1996)

 Real(R)+Recip(G) space primitive vectors, cartesian coordinates (Bohr,Bohr^-1):
 R(1)=  7.7624317  0.0000000  0.0000000  G(1)=  0.1288256  0.0000000  0.0000000
 R(2)=  0.0000000  7.7624317  0.0000000  G(2)=  0.0000000  0.1288256  0.0000000
 R(3)=  0.0000000  0.0000000 48.5128330  G(3)=  0.0000000  0.0000000  0.0206131
 Unit cell volume ucvol=  2.9231575E+03 bohr^3
 Angles (23,13,12)=  9.00000000E+01  9.00000000E+01  9.00000000E+01 degrees

 getcut: wavevector=  0.0000  0.0000  0.0000  ngfft=  36  36 216
         ecut(hartree)=     22.500   => boxcut(ratio)=   2.08517

--- Pseudopotential description ------------------------------------------------
- pspini: atom type   1  psp file is ../../../Psps_for_tests/ATOMICDATA_NC/Sn.psp8
- pspatm: opening atomic psp file    ../../../Psps_for_tests/ATOMICDATA_NC/Sn.psp8
- Sn    ONCVPSP  r_core=  2.27  2.62  1.86
- 50.00000  14.00000    150810                znucl, zion, pspdat
    8   11    2    4       600   0.00000      pspcod,pspxc,lmax,lloc,mmax,r2well
    5.99000000000000    6.50000000000000    0.00000000000000   rchrg,fchrg,qchrg
     nproj     2     2     2
     extension_switch     1
  pspatm : epsatm=   32.65190642
         --- l  ekb(1:nproj) -->
             0    5.462393    0.682281
             1    4.443814    0.825686
             2   -5.382195   -1.704077
 pspatm: atomic psp has been read  and splines computed

- pspini: atom type   2  psp file is ../../../Psps_for_tests/ATOMICDATA_NC/Se.psp8
- pspatm: opening atomic psp file    ../../../Psps_for_tests/ATOMICDATA_NC/Se.psp8
- Se    ONCVPSP  r_core=  1.82  1.50  1.91
- 34.00000  16.00000    150729                znucl, zion, pspdat
    8   11    2    4       600   0.00000      pspcod,pspxc,lmax,lloc,mmax,r2well
    5.99000000000000    5.00000000000000    0.00000000000000   rchrg,fchrg,qchrg
     nproj     2     2     2
     extension_switch     1
  pspatm : epsatm=   29.53325930
         --- l  ekb(1:nproj) -->
             0    8.612261    0.939919
             1    6.984962    1.281898
             2   -9.322521   -3.856218
 pspatm: atomic psp has been read  and splines computed

   9.14121936E+04                                ecore*ucvol(ha*bohr**3)
--------------------------------------------------------------------------------

_setup2: Arith. and geom. avg. npw (full set) are   14902.625   14902.617

================================================================================

--- !BeginCycle
iteration_state: {dtset: 1, }
solver: {iscf: 17, nstep: 150, nline: 4, wfoptalg: 0, }
tolerances: {toldfe: 1.00E-06, }
...

     iter   Etot(hartree)      deltaE(h)  residm     nres2
 ETOT  1  -1368.5313052996    -1.369E+03 8.875E-01 3.036E+02
 ETOT  2  -1394.5483296984    -2.602E+01 5.516E-02 1.998E+02
 ETOT  3  -1392.8039508899     1.744E+00 7.446E-02 1.877E+01
 ETOT  4  -1393.1887950004    -3.848E-01 9.273E-02 1.701E+01
 ETOT  5  -1392.5937906453     5.950E-01 5.113E-02 3.398E+00
 ETOT  6  -1392.5784996320     1.529E-02 2.872E-02 1.305E+00
 ETOT  7  -1392.5960171253    -1.752E-02 3.277E-03 3.743E-01
 ETOT  8  -1392.5958491018     1.680E-04 2.181E-03 1.738E-01
 ETOT  9  -1392.5902439309     5.605E-03 1.044E-03 3.044E-02
 ETOT 10  -1392.5893866451     8.573E-04 8.322E-04 9.566E-03
 ETOT 11  -1392.5889287795     4.579E-04 2.163E-04 5.261E-03
 ETOT 12  -1392.5884801390     4.486E-04 2.719E-04 2.660E-03
 ETOT 13  -1392.5884031151     7.702E-05 1.801E-04 1.914E-03
 ETOT 14  -1392.5883327525     7.036E-05 1.128E-04 1.036E-03
 ETOT 15  -1392.5883412346    -8.482E-06 1.633E-04 4.936E-04
 ETOT 16  -1392.5883747755    -3.354E-05 9.511E-05 2.260E-04
 ETOT 17  -1392.5884386648    -6.389E-05 1.209E-04 4.607E-05
 ETOT 18  -1392.5884776348    -3.897E-05 6.668E-05 7.496E-06
 ETOT 19  -1392.5884857365    -8.102E-06 7.730E-05 1.639E-06
 ETOT 20  -1392.5884868293    -1.093E-06 3.982E-05 1.693E-07
 ETOT 21  -1392.5884869309    -1.016E-07 4.563E-05 1.352E-08
 ETOT 22  -1392.5884869377    -6.783E-09 2.246E-05 2.903E-09

 At SCF step   22, etot is converged : 
  for the second time, diff in etot=  6.783E-09 < toldfe=  1.000E-06

 Cartesian components of stress tensor (hartree/bohr^3)
  sigma(1 1)=  1.36995102E-02  sigma(3 2)=  0.00000000E+00
  sigma(2 2)=  1.36995102E-02  sigma(3 1)=  0.00000000E+00
  sigma(3 3)=  1.34139559E-02  sigma(2 1)=  0.00000000E+00


--- !ResultsGS
iteration_state: {dtset: 1, }
comment   : Summary of ground state results
lattice_vectors:
- [  7.7624317,   0.0000000,   0.0000000, ]
- [  0.0000000,   7.7624317,   0.0000000, ]
- [  0.0000000,   0.0000000,  48.5128330, ]
lattice_lengths: [   7.76243,    7.76243,   48.51283, ]
lattice_angles: [ 90.000,  90.000,  90.000, ] # degrees, (23, 13, 12)
lattice_volume:   2.9231575E+03
convergence: {deltae: -6.783E-09, res2:  2.903E-09, residm:  2.246E-05, diffor: null, }
etotal    :  -1.39258849E+03
entropy   :   0.00000000E+00
fermie    :   1.53435169E-01
cartesian_stress_tensor: # hartree/bohr^3
- [  1.36995102E-02,   0.00000000E+00,   0.00000000E+00, ]
- [  0.00000000E+00,   1.36995102E-02,   0.00000000E+00, ]
- [  0.00000000E+00,   0.00000000E+00,   1.34139559E-02, ]
pressure_GPa:  -4.0025E+02
xred      :
- [  5.0000E-01,   0.0000E+00,   1.8177E-01, Sn]
- [  0.0000E+00,   5.0000E-01,   2.8888E-01, Sn]
- [  5.0000E-01,   0.0000E+00,   3.9351E-01, Sn]
- [  0.0000E+00,   5.0000E-01,   5.0062E-01, Sn]
- [  5.0000E-01,   0.0000E+00,   6.0525E-01, Sn]
- [  0.0000E+00,   5.0000E-01,   7.1236E-01, Sn]
- [  5.0000E-01,   0.0000E+00,   8.1699E-01, Sn]
- [  0.0000E+00,   5.0000E-01,   1.8301E-01, Se]
- [  5.0000E-01,   0.0000E+00,   2.8764E-01, Se]
- [  0.0000E+00,   5.0000E-01,   3.9475E-01, Se]
- [  5.0000E-01,   0.0000E+00,   4.9938E-01, Se]
- [  0.0000E+00,   5.0000E-01,   6.0649E-01, Se]
- [  5.0000E-01,   0.0000E+00,   7.1112E-01, Se]
- [  0.0000E+00,   5.0000E-01,   8.1823E-01, Se]
cartesian_forces: # hartree/bohr
- [ -0.00000000E+00,  -0.00000000E+00,  -1.31046279E-02, ]
- [ -0.00000000E+00,  -0.00000000E+00,  -1.24666698E-02, ]
- [ -0.00000000E+00,  -0.00000000E+00,   3.77705416E-03, ]
- [ -0.00000000E+00,  -0.00000000E+00,  -1.01176012E-03, ]
- [ -0.00000000E+00,  -0.00000000E+00,  -2.21937086E-03, ]
- [ -0.00000000E+00,  -0.00000000E+00,   1.02645586E-02, ]
- [ -0.00000000E+00,  -0.00000000E+00,   1.40888236E-02, ]
- [ -0.00000000E+00,  -0.00000000E+00,  -1.46271729E-02, ]
- [ -0.00000000E+00,  -0.00000000E+00,  -9.31285022E-03, ]
- [ -0.00000000E+00,  -0.00000000E+00,   1.92728892E-03, ]
- [ -0.00000000E+00,  -0.00000000E+00,   1.49474332E-03, ]
- [ -0.00000000E+00,  -0.00000000E+00,  -4.12187097E-03, ]
- [ -0.00000000E+00,  -0.00000000E+00,   1.27657862E-02, ]
- [ -0.00000000E+00,  -0.00000000E+00,   1.25460680E-02, ]
force_length_stats: {min:   1.01176012E-03, max:   1.46271729E-02, mean:   8.12347468E-03, }
...

 Integrated electronic density in atomic spheres:
 ------------------------------------------------
 Atom  Sphere_radius  Integrated_density
    1        2.00000         10.55710137
    2        2.00000         10.57802251
    3        2.00000         10.55674507
    4        2.00000         10.57117997
    5        2.00000         10.58121232
    6        2.00000         10.57060567
    7        2.00000         10.53451443
    8        2.00000         13.27597249
    9        2.00000         13.31347580
   10        2.00000         13.32962573
   11        2.00000         13.31633556
   12        2.00000         13.30104583
   13        2.00000         13.32166316
   14        2.00000         13.30101257
================================================================================

 ----iterations are completed or convergence reached----

 Mean square residual over all n,k,spin=   32.711E-09; max=  22.462E-06
 reduced coordinates (array xred) for   14 atoms
       0.500000000000      0.000000000000      0.181773000000
       0.000000000000      0.500000000000      0.288880000000
       0.500000000000      0.000000000000      0.393512000000
       0.000000000000      0.500000000000      0.500619000000
       0.500000000000      0.000000000000      0.605251000000
       0.000000000000      0.500000000000      0.712357000000
       0.500000000000      0.000000000000      0.816989000000
       0.000000000000      0.500000000000      0.183011000000
       0.500000000000      0.000000000000      0.287643000000
       0.000000000000      0.500000000000      0.394749000000
       0.500000000000      0.000000000000      0.499381000000
       0.000000000000      0.500000000000      0.606488000000
       0.500000000000      0.000000000000      0.711120000000
       0.000000000000      0.500000000000      0.818227000000
 rms dE/dt=  2.6940E-01; max dE/dt=  7.1060E-01; dE/dt below (all hartree)
    1       0.000000000000      0.000000000000      0.636738571730
    2       0.000000000000      0.000000000000      0.605789414938
    3       0.000000000000      0.000000000000     -0.182239650803
    4       0.000000000000      0.000000000000      0.050079296852
    5       0.000000000000      0.000000000000      0.108663914951
    6       0.000000000000      0.000000000000     -0.496966868564
    7       0.000000000000      0.000000000000     -0.682492801135
    8       0.000000000000      0.000000000000      0.710601545043
    9       0.000000000000      0.000000000000      0.452788694663
   10       0.000000000000      0.000000000000     -0.092502298230
   11       0.000000000000      0.000000000000     -0.071518285822
   12       0.000000000000      0.000000000000      0.200959585443
   13       0.000000000000      0.000000000000     -0.618308505490
   14       0.000000000000      0.000000000000     -0.607649353413

 cartesian coordinates (angstrom) at end:
    1      2.05385096425820     0.00000000000000     4.66645565267078
    2      0.00000000000000     2.05385096425820     7.41609429862266
    3      2.05385096425820     0.00000000000000    10.10219502783023
    4      0.00000000000000     2.05385096425820    12.85183367378211
    5      2.05385096425820     0.00000000000000    15.53793440298969
    6      0.00000000000000     2.05385096425820    18.28754737705601
    7      2.05385096425820     0.00000000000000    20.97364810626359
    8      0.00000000000000     2.05385096425820     4.69823744698571
    9      2.05385096425820     0.00000000000000     7.38433817619329
   10      0.00000000000000     2.05385096425820    10.13395115025961
   11      2.05385096425820     0.00000000000000    12.82005187946719
   12      0.00000000000000     2.05385096425820    15.56969052541906
   13      2.05385096425820     0.00000000000000    18.25579125462664
   14      0.00000000000000     2.05385096425820    21.00542990057851

 cartesian forces (hartree/bohr) at end:
    1     -0.00000000000000    -0.00000000000000    -0.01310462789174
    2     -0.00000000000000    -0.00000000000000    -0.01246666975012
    3     -0.00000000000000    -0.00000000000000     0.00377705416457
    4     -0.00000000000000    -0.00000000000000    -0.00101176011896
    5     -0.00000000000000    -0.00000000000000    -0.00221937085747
    6     -0.00000000000000    -0.00000000000000     0.01026455856766
    7     -0.00000000000000    -0.00000000000000     0.01408882363440
    8     -0.00000000000000    -0.00000000000000    -0.01462717293248
    9     -0.00000000000000    -0.00000000000000    -0.00931285021864
   10     -0.00000000000000    -0.00000000000000     0.00192728891682
   11     -0.00000000000000    -0.00000000000000     0.00149474331793
   12     -0.00000000000000    -0.00000000000000    -0.00412187097474
   13     -0.00000000000000    -0.00000000000000     0.01276578616862
   14     -0.00000000000000    -0.00000000000000     0.01254606797415
 frms,max,avg= 5.5532308E-03 1.4627173E-02   0.000E+00  0.000E+00 -2.053E-05 h/b

 cartesian forces (eV/Angstrom) at end:
    1     -0.00000000000000    -0.00000000000000    -0.67386700355947
    2     -0.00000000000000    -0.00000000000000    -0.64106187968723
    3     -0.00000000000000    -0.00000000000000     0.19422391793122
    4     -0.00000000000000    -0.00000000000000    -0.05202679277244
    5     -0.00000000000000    -0.00000000000000    -0.11412462847974
    6     -0.00000000000000    -0.00000000000000     0.52782477930660
    7     -0.00000000000000    -0.00000000000000     0.72447637923227
    8     -0.00000000000000    -0.00000000000000    -0.75215941085784
    9     -0.00000000000000    -0.00000000000000    -0.47888597244285
   10     -0.00000000000000    -0.00000000000000     0.09910517247058
   11     -0.00000000000000    -0.00000000000000     0.07686278535078
   12     -0.00000000000000    -0.00000000000000    -0.21195510973345
   13     -0.00000000000000    -0.00000000000000     0.65644306306113
   14     -0.00000000000000    -0.00000000000000     0.64514470018045
 frms,max,avg= 2.8555859E-01 7.5215941E-01   0.000E+00  0.000E+00 -1.056E-03 e/A
 length scales=  7.762431680422  7.762431680422  7.762431680422 bohr
              =  4.107701928516  4.107701928516  4.107701928516 angstroms
 prteigrs : about to open file Cs2TiI6o_EIG
 Fermi (or HOMO) energy (hartree) =   0.15344   Average Vxc (hartree)=  -0.31754
 Eigenvalues (hartree) for nkpt=  10  k points:
 kpt#   1, nband=107, wtk=  0.06250, kpt=  0.0625  0.0625  0.5000 (reduced coord)
  -1.66991   -1.66939   -1.66762   -1.66706   -1.66685   -1.66581   -1.66581   -1.66567
  -1.66528   -1.66523   -1.66358   -1.66343   -1.66292   -1.66272   -1.66248   -1.66235
  -1.66212   -1.66065   -1.66045   -1.66019   -1.65980   -1.65827   -1.65761   -1.65439
  -1.65418   -1.64257   -1.64151   -1.64119   -1.64032   -1.63969   -1.63872   -1.63867
  -1.63781   -1.63718   -1.63674   -0.66307   -0.66301   -0.66156   -0.66143   -0.66140
  -0.66137   -0.66059   -0.66052   -0.66049   -0.66043   -0.65842   -0.65744   -0.65728
  -0.65638   -0.65637   -0.65626   -0.65597   -0.65551   -0.65546   -0.65511   -0.65510
  -0.65419   -0.65404   -0.65396   -0.65395   -0.65371   -0.65359   -0.65311   -0.65304
  -0.65292   -0.65289   -0.65282   -0.65278   -0.65259   -0.65250   -0.41696   -0.40879
  -0.39575   -0.37990   -0.36270   -0.34822   -0.34526   -0.13412   -0.13281   -0.11799
  -0.11019   -0.09028   -0.08075   -0.06022   -0.04664   -0.02983   -0.02871   -0.01995
  -0.00575   -0.00493   -0.00445    0.01122    0.01178    0.02417    0.02973    0.03448
   0.03988    0.04205    0.04348    0.04832    0.06581    0.06712    0.08694    0.09980
   0.12747    0.20102    0.23027
 prteigrs : prtvol=0 or 1, do not print more k-points.


--- !EnergyTerms
iteration_state     : {dtset: 1, }
comment             : Components of total free energy in Hartree
kinetic             :  8.51165286052052E+02
hartree             :  1.62476926430878E+03
xc                  : -3.21111057885584E+02
Ewald energy        :  4.84661859267764E+02
psp_core            :  3.12717303227399E+01
local_psp           : -3.56130746867858E+03
non_local_psp       : -5.01843682778766E+02
VdWaals_dft_d       : -1.94414950106955E-01
total_energy        : -1.39258848434170E+03
...


--- !EnergyTermsDC
iteration_state     : {dtset: 1, }
comment             : '"Double-counting" decomposition of free energy'
band_energy         : -1.67535747456179E+02
Ewald energy        :  4.84661859267764E+02
psp_core            :  3.12717303227399E+01
xc_dc               : -1.74079191412188E+03
VdWaals_dft_d       : -1.94414950106955E-01
total_energy_dc     : -1.39258848693766E+03
...


 Cartesian components of stress tensor (hartree/bohr^3)
  sigma(1 1)=  1.36995102E-02  sigma(3 2)=  0.00000000E+00
  sigma(2 2)=  1.36995102E-02  sigma(3 1)=  0.00000000E+00
  sigma(3 3)=  1.34139559E-02  sigma(2 1)=  0.00000000E+00

-Cartesian components of stress tensor (GPa)         [Pressure= -4.0025E+02 GPa]
- sigma(1 1)=  4.03053436E+02  sigma(3 2)=  0.00000000E+00
- sigma(2 2)=  4.03053436E+02  sigma(3 1)=  0.00000000E+00
- sigma(3 3)=  3.94652141E+02  sigma(2 1)=  0.00000000E+00

== END DATASET(S) ==============================================================
================================================================================
  
 -outvars: echo values of variables after computation  --------
            acell      7.7624316804E+00  7.7624316804E+00  7.7624316804E+00 Bohr
              amu      1.18710000E+02  7.89600000E+01
           diemac      1.20000000E+01
             ecut      2.25000000E+01 Hartree
           etotal     -1.3925884869E+03
            fcart     -0.0000000000E+00 -0.0000000000E+00 -1.3104627892E-02
                      -0.0000000000E+00 -0.0000000000E+00 -1.2466669750E-02
                      -0.0000000000E+00 -0.0000000000E+00  3.7770541646E-03
                      -0.0000000000E+00 -0.0000000000E+00 -1.0117601190E-03
                      -0.0000000000E+00 -0.0000000000E+00 -2.2193708575E-03
                      -0.0000000000E+00 -0.0000000000E+00  1.0264558568E-02
                      -0.0000000000E+00 -0.0000000000E+00  1.4088823634E-02
                      -0.0000000000E+00 -0.0000000000E+00 -1.4627172932E-02
                      -0.0000000000E+00 -0.0000000000E+00 -9.3128502186E-03
                      -0.0000000000E+00 -0.0000000000E+00  1.9272889168E-03
                      -0.0000000000E+00 -0.0000000000E+00  1.4947433179E-03
                      -0.0000000000E+00 -0.0000000000E+00 -4.1218709747E-03
                      -0.0000000000E+00 -0.0000000000E+00  1.2765786169E-02
                      -0.0000000000E+00 -0.0000000000E+00  1.2546067974E-02
-          fftalg         112
             iscf          17
              ixc          11
              kpt      6.25000000E-02  6.25000000E-02  5.00000000E-01
                       1.87500000E-01  6.25000000E-02  5.00000000E-01
                       3.12500000E-01  6.25000000E-02  5.00000000E-01
                       4.37500000E-01  6.25000000E-02  5.00000000E-01
                       1.87500000E-01  1.87500000E-01  5.00000000E-01
                       3.12500000E-01  1.87500000E-01  5.00000000E-01
                       4.37500000E-01  1.87500000E-01  5.00000000E-01
                       3.12500000E-01  3.12500000E-01  5.00000000E-01
                       4.37500000E-01  3.12500000E-01  5.00000000E-01
                       4.37500000E-01  4.37500000E-01  5.00000000E-01
         kptrlatt        8    0    0      0    8    0      0    0    1
          kptrlen      6.20994534E+01
P           mkmem           2
            natom          14
            nband         107
            ngfft          36      36     216
             nkpt          10
            nstep         150
             nsym           8
           ntypat           2
              occ      2.000000  2.000000  2.000000  2.000000  2.000000  2.000000
                       2.000000  2.000000  2.000000  2.000000  2.000000  2.000000
                       2.000000  2.000000  2.000000  2.000000  2.000000  2.000000
                       2.000000  2.000000  2.000000  2.000000  2.000000  2.000000
                       2.000000  2.000000  2.000000  2.000000  2.000000  2.000000
                       2.000000  2.000000  2.000000  2.000000  2.000000  2.000000
                       2.000000  2.000000  2.000000  2.000000  2.000000  2.000000
                       2.000000  2.000000  2.000000  2.000000  2.000000  2.000000
                       2.000000  2.000000  2.000000  2.000000  2.000000  2.000000
                       2.000000  2.000000  2.000000  2.000000  2.000000  2.000000
                       2.000000  2.000000  2.000000  2.000000  2.000000  2.000000
                       2.000000  2.000000  2.000000  2.000000  2.000000  2.000000
                       2.000000  2.000000  2.000000  2.000000  2.000000  2.000000
                       2.000000  2.000000  2.000000  2.000000  2.000000  2.000000
                       2.000000  2.000000  2.000000  2.000000  2.000000  2.000000
                       2.000000  2.000000  2.000000  2.000000  2.000000  2.000000
                       2.000000  2.000000  2.000000  2.000000  2.000000  2.000000
                       2.000000  2.000000  2.000000  0.000000  0.000000
           prtcif           1
            rprim      1.0000000000E+00  0.0000000000E+00  0.0000000000E+00
                       0.0000000000E+00  1.0000000000E+00  0.0000000000E+00
                       0.0000000000E+00  0.0000000000E+00  6.2496953284E+00
           shiftk      5.00000000E-01  5.00000000E-01  5.00000000E-01
          spgroup          99
           strten      1.3699510152E-02  1.3699510152E-02  1.3413955872E-02
                       0.0000000000E+00  0.0000000000E+00  0.0000000000E+00
           symrel      1  0  0   0  1  0   0  0  1       1  0  0   0 -1  0   0  0  1
                      -1  0  0   0 -1  0   0  0  1      -1  0  0   0  1  0   0  0  1
                       0  1  0   1  0  0   0  0  1       0  1  0  -1  0  0   0  0  1
                       0 -1  0  -1  0  0   0  0  1       0 -1  0   1  0  0   0  0  1
            tnons      0.0000000  0.0000000  0.0000000     0.0000000  0.0000000  0.0000000
                      -0.0000000  0.0000000  0.0000000    -0.0000000  0.0000000  0.0000000
                       0.5000000  0.5000000  0.0000000     0.5000000  0.5000000  0.0000000
                       0.5000000  0.5000000  0.0000000     0.5000000  0.5000000  0.0000000
           toldfe      1.00000000E-06 Hartree
            typat      1  1  1  1  1  1  1  2  2  2  2  2  2  2
           vdw_xc           5
              wtk        0.06250    0.12500    0.12500    0.12500    0.06250    0.12500
                         0.12500    0.06250    0.12500    0.06250
           xangst      2.0538509643E+00  0.0000000000E+00  4.6664556527E+00
                       0.0000000000E+00  2.0538509643E+00  7.4160942986E+00
                       2.0538509643E+00  0.0000000000E+00  1.0102195028E+01
                       0.0000000000E+00  2.0538509643E+00  1.2851833674E+01
                       2.0538509643E+00  0.0000000000E+00  1.5537934403E+01
                       0.0000000000E+00  2.0538509643E+00  1.8287547377E+01
                       2.0538509643E+00  0.0000000000E+00  2.0973648106E+01
                       0.0000000000E+00  2.0538509643E+00  4.6982374470E+00
                       2.0538509643E+00  0.0000000000E+00  7.3843381762E+00
                       0.0000000000E+00  2.0538509643E+00  1.0133951150E+01
                       2.0538509643E+00  0.0000000000E+00  1.2820051879E+01
                       0.0000000000E+00  2.0538509643E+00  1.5569690525E+01
                       2.0538509643E+00  0.0000000000E+00  1.8255791255E+01
                       0.0000000000E+00  2.0538509643E+00  2.1005429901E+01
            xcart      3.8812158402E+00  0.0000000000E+00  8.8183231948E+00
                       0.0000000000E+00  3.8812158402E+00  1.4014387200E+01
                       3.8812158402E+00  0.0000000000E+00  1.9090381944E+01
                       0.0000000000E+00  3.8812158402E+00  2.4286445949E+01
                       3.8812158402E+00  0.0000000000E+00  2.9362440692E+01
                       0.0000000000E+00  3.8812158402E+00  3.4558456185E+01
                       3.8812158402E+00  0.0000000000E+00  3.9634450928E+01
                       0.0000000000E+00  3.8812158402E+00  8.8783820821E+00
                       3.8812158402E+00  0.0000000000E+00  1.3954376826E+01
                       0.0000000000E+00  3.8812158402E+00  1.9150392318E+01
                       3.8812158402E+00  0.0000000000E+00  2.4226387062E+01
                       0.0000000000E+00  3.8812158402E+00  2.9422451067E+01
                       3.8812158402E+00  0.0000000000E+00  3.4498445810E+01
                       0.0000000000E+00  3.8812158402E+00  3.9694509816E+01
             xred      5.0000000000E-01  0.0000000000E+00  1.8177300000E-01
                       0.0000000000E+00  5.0000000000E-01  2.8888000000E-01
                       5.0000000000E-01  0.0000000000E+00  3.9351200000E-01
                       0.0000000000E+00  5.0000000000E-01  5.0061900000E-01
                       5.0000000000E-01  0.0000000000E+00  6.0525100000E-01
                       0.0000000000E+00  5.0000000000E-01  7.1235700000E-01
                       5.0000000000E-01  0.0000000000E+00  8.1698900000E-01
                       0.0000000000E+00  5.0000000000E-01  1.8301100000E-01
                       5.0000000000E-01  0.0000000000E+00  2.8764300000E-01
                       0.0000000000E+00  5.0000000000E-01  3.9474900000E-01
                       5.0000000000E-01  0.0000000000E+00  4.9938100000E-01
                       0.0000000000E+00  5.0000000000E-01  6.0648800000E-01
                       5.0000000000E-01  0.0000000000E+00  7.1112000000E-01
                       0.0000000000E+00  5.0000000000E-01  8.1822700000E-01
            znucl       50.00000   34.00000

================================================================================


- Timing analysis has been suppressed with timopt=0



================================================================================

 Suggested references for the acknowledgment of ABINIT usage.

 The users of ABINIT have little formal obligations with respect to the ABINIT group
 (those specified in the GNU General Public License, http://www.gnu.org/copyleft/gpl.txt).
 However, it is common practice in the scientific literature,
 to acknowledge the efforts of people that have made the research possible.
 In this spirit, please find below suggested citations of work written by ABINIT developers,
 corresponding to implementations inside of ABINIT that you have used in the present run.
 Note also that it will be of great value to readers of publications presenting these results,
 to read papers enabling them to understand the theoretical formalism and details
 of the ABINIT implementation.
 For information on why they are suggested, see also https://docs.abinit.org/theory/acknowledgments.
-
- [1] The Abinit project: Impact, environment and recent developments.
- Computer Phys. Comm. 248, 107042 (2020).
- X.Gonze, B. Amadon, G. Antonius, F.Arnardi, L.Baguet, J.-M.Beuken,
- J.Bieder, F.Bottin, J.Bouchet, E.Bousquet, N.Brouwer, F.Bruneval,
- G.Brunin, T.Cavignac, J.-B. Charraud, Wei Chen, M.Cote, S.Cottenier,
- J.Denier, G.Geneste, Ph.Ghosez, M.Giantomassi, Y.Gillet, O.Gingras,
- D.R.Hamann, G.Hautier, Xu He, N.Helbig, N.Holzwarth, Y.Jia, F.Jollet,
- W.Lafargue-Dit-Hauret, K.Lejaeghere, M.A.L.Marques, A.Martin, C.Martins,
- H.P.C. Miranda, F.Naccarato, K. Persson, G.Petretto, V.Planes, Y.Pouillon,
- S.Prokhorenko, F.Ricci, G.-M.Rignanese, A.H.Romero, M.M.Schmitt, M.Torrent,
- M.J.van Setten, B.Van Troeye, M.J.Verstraete, G.Zerah and J.W.Zwanzig
- Comment: the fifth generic paper describing the ABINIT project.
- Note that a version of this paper, that is not formatted for Computer Phys. Comm. 
- is available at https://www.abinit.org/sites/default/files/ABINIT20.pdf .
- The licence allows the authors to put it on the Web.
- DOI and bibtex: see https://docs.abinit.org/theory/bibliography/#gonze2020
-
- [2] Optimized norm-conserving Vanderbilt pseudopotentials.
- D.R. Hamann, Phys. Rev. B 88, 085117 (2013).
- Comment: Some pseudopotential generated using the ONCVPSP code were used.
- DOI and bibtex: see https://docs.abinit.org/theory/bibliography/#hamann2013
-
- [3] ABINIT: Overview, and focus on selected capabilities
- J. Chem. Phys. 152, 124102 (2020).
- A. Romero, D.C. Allan, B. Amadon, G. Antonius, T. Applencourt, L.Baguet,
- J.Bieder, F.Bottin, J.Bouchet, E.Bousquet, F.Bruneval,
- G.Brunin, D.Caliste, M.Cote,
- J.Denier, C. Dreyer, Ph.Ghosez, M.Giantomassi, Y.Gillet, O.Gingras,
- D.R.Hamann, G.Hautier, F.Jollet, G. Jomard,
- A.Martin, 
- H.P.C. Miranda, F.Naccarato, G.Petretto, N.A. Pike, V.Planes,
- S.Prokhorenko, T. Rangel, F.Ricci, G.-M.Rignanese, M.Royo, M.Stengel, M.Torrent,
- M.J.van Setten, B.Van Troeye, M.J.Verstraete, J.Wiktor, J.W.Zwanziger, and X.Gonze.
- Comment: a global overview of ABINIT, with focus on selected capabilities .
- Note that a version of this paper, that is not formatted for J. Chem. Phys 
- is available at https://www.abinit.org/sites/default/files/ABINIT20_JPC.pdf .
- The licence allows the authors to put it on the Web.
- DOI and bibtex: see https://docs.abinit.org/theory/bibliography/#romero2020
-
- [4] Recent developments in the ABINIT software package.
- Computer Phys. Comm. 205, 106 (2016).
- X.Gonze, F.Jollet, F.Abreu Araujo, D.Adams, B.Amadon, T.Applencourt,
- C.Audouze, J.-M.Beuken, J.Bieder, A.Bokhanchuk, E.Bousquet, F.Bruneval
- D.Caliste, M.Cote, F.Dahm, F.Da Pieve, M.Delaveau, M.Di Gennaro,
- B.Dorado, C.Espejo, G.Geneste, L.Genovese, A.Gerossier, M.Giantomassi,
- Y.Gillet, D.R.Hamann, L.He, G.Jomard, J.Laflamme Janssen, S.Le Roux,
- A.Levitt, A.Lherbier, F.Liu, I.Lukacevic, A.Martin, C.Martins,
- M.J.T.Oliveira, S.Ponce, Y.Pouillon, T.Rangel, G.-M.Rignanese,
- A.H.Romero, B.Rousseau, O.Rubel, A.A.Shukri, M.Stankovski, M.Torrent,
- M.J.Van Setten, B.Van Troeye, M.J.Verstraete, D.Waroquier, J.Wiktor,
- B.Xu, A.Zhou, J.W.Zwanziger.
- Comment: the fourth generic paper describing the ABINIT project.
- Note that a version of this paper, that is not formatted for Computer Phys. Comm. 
- is available at https://www.abinit.org/sites/default/files/ABINIT16.pdf .
- The licence allows the authors to put it on the Web.
- DOI and bibtex: see https://docs.abinit.org/theory/bibliography/#gonze2016
-
- And optionally:
-
- [5] ABINIT: First-principles approach of materials and nanosystem properties.
- Computer Phys. Comm. 180, 2582-2615 (2009).
- X. Gonze, B. Amadon, P.-M. Anglade, J.-M. Beuken, F. Bottin, P. Boulanger, F. Bruneval,
- D. Caliste, R. Caracas, M. Cote, T. Deutsch, L. Genovese, Ph. Ghosez, M. Giantomassi
- S. Goedecker, D.R. Hamann, P. Hermet, F. Jollet, G. Jomard, S. Leroux, M. Mancini, S. Mazevet,
- M.J.T. Oliveira, G. Onida, Y. Pouillon, T. Rangel, G.-M. Rignanese, D. Sangalli, R. Shaltaf,
- M. Torrent, M.J. Verstraete, G. Zerah, J.W. Zwanziger
- Comment: the third generic paper describing the ABINIT project.
- Note that a version of this paper, that is not formatted for Computer Phys. Comm. 
- is available at https://www.abinit.org/sites/default/files/ABINIT_CPC_v10.pdf .
- The licence allows the authors to put it on the Web.
- DOI and bibtex: see https://docs.abinit.org/theory/bibliography/#gonze2009
-
- Proc.   0 individual time (sec): cpu=        953.4  wall=        953.5

================================================================================

 Calculation completed.
.Delivered   0 WARNINGs and   0 COMMENTs to log file.
+Overall time at end (sec) : cpu=       5720.6  wall=       5721.0
