
.Version 9.2.2 of ABINIT 
.(MPI version, prepared for a x86_64_linux_gnu9.3 computer) 

.Copyright (C) 1998-2020 ABINIT group . 
 ABINIT comes with ABSOLUTELY NO WARRANTY.
 It is free software, and you are welcome to redistribute it
 under certain conditions (GNU General Public License,
 see ~abinit/COPYING or http://www.gnu.org/copyleft/gpl.txt).

 ABINIT is a project of the Universite Catholique de Louvain,
 Corning Inc. and other collaborators, see ~abinit/doc/developers/contributors.txt .
 Please read https://docs.abinit.org/theory/acknowledgments for suggested
 acknowledgments of the ABINIT effort.
 For more information, see https://www.abinit.org .

.Starting date : Sun 17 Mar 2024.
- ( at 21h30 )
  
- The starting date is more than 3 years after the initial release
- of this version of ABINIT, namely Nov 2020.
- This version of ABINIT is not supported anymore.
- Action: please, switch to a more recent version of ABINIT.
- input  file    -> Cs2TiI6.in
- output file    -> Cs2TiI6.out
- root for input  files -> Cs2TiI6i
- root for output files -> Cs2TiI6o


 Symmetries : space group P4 m m (# 99); Bravais tP (primitive tetrag.)
================================================================================
 Values of the parameters that define the memory need of the present run
     intxc =       0    ionmov =       0      iscf =      17    lmnmax =       6
     lnmax =       6     mgfft =     288  mpssoang =       3    mqgrid =   13909
     natom =      20  nloc_mem =       1    nspden =       1   nspinor =       1
    nsppol =       1      nsym =       8    n1xccc =    2501    ntypat =       3
    occopt =       1   xclevel =       2
-    mband =         159        mffmem =           1         mkmem =           2
       mpw =       20052          nfft =      373248          nkpt =           6
================================================================================
P This job should need less than                     232.130 Mbytes of memory.
  Rough estimation (10% accuracy) of disk space for files :
_ WF disk file :    291.897 Mbytes ; DEN or POT disk file :      2.850 Mbytes.
================================================================================

--------------------------------------------------------------------------------
------------- Echo of variables that govern the present computation ------------
--------------------------------------------------------------------------------
-
- outvars: echo of selected default values                                      
-   iomode0 =  0 , fftalg0 =112 , wfoptalg0 =  0
-
- outvars: echo of global parameters not present in the input file              
-  max_nthreads =    0
-
 -outvars: echo values of preprocessed input variables --------
            acell      7.7624316804E+00  7.7624316804E+00  7.7624316804E+00 Bohr
              amu      1.18710000E+02  7.89600000E+01  6.53900000E+01
           diemac      1.20000000E+01
             ecut      2.25000000E+01 Hartree
-          fftalg         112
             iscf          17
              ixc          11
              kpt      8.33333333E-02  8.33333333E-02  5.00000000E-01
                       2.50000000E-01  8.33333333E-02  5.00000000E-01
                       4.16666667E-01  8.33333333E-02  5.00000000E-01
                       2.50000000E-01  2.50000000E-01  5.00000000E-01
                       4.16666667E-01  2.50000000E-01  5.00000000E-01
                       4.16666667E-01  4.16666667E-01  5.00000000E-01
         kptrlatt        6    0    0      0    6    0      0    0    1
          kptrlen      4.65745901E+01
P           mkmem           2
            natom          20
            nband         159
            ngfft          36      36     288
             nkpt           6
            nstep         150
             nsym           8
           ntypat           3
              occ      2.000000  2.000000  2.000000  2.000000  2.000000  2.000000
                       2.000000  2.000000  2.000000  2.000000  2.000000  2.000000
                       2.000000  2.000000  2.000000  2.000000  2.000000  2.000000
                       2.000000  2.000000  2.000000  2.000000  2.000000  2.000000
                       2.000000  2.000000  2.000000  2.000000  2.000000  2.000000
                       2.000000  2.000000  2.000000  2.000000  2.000000  2.000000
                       2.000000  2.000000  2.000000  2.000000  2.000000  2.000000
                       2.000000  2.000000  2.000000  2.000000  2.000000  2.000000
                       2.000000  2.000000  2.000000  2.000000  2.000000  2.000000
                       2.000000  2.000000  2.000000  2.000000  2.000000  2.000000
                       2.000000  2.000000  2.000000  2.000000  2.000000  2.000000
                       2.000000  2.000000  2.000000  2.000000  2.000000  2.000000
                       2.000000  2.000000  2.000000  2.000000  2.000000  2.000000
                       2.000000  2.000000  2.000000  2.000000  2.000000  2.000000
                       2.000000  2.000000  2.000000  2.000000  2.000000  2.000000
                       2.000000  2.000000  2.000000  2.000000  2.000000  2.000000
                       2.000000  2.000000  2.000000  2.000000  2.000000  2.000000
                       2.000000  2.000000  2.000000  2.000000  2.000000  2.000000
                       2.000000  2.000000  2.000000  2.000000  2.000000  2.000000
                       2.000000  2.000000  2.000000  2.000000  2.000000  2.000000
                       2.000000  2.000000  2.000000  2.000000  2.000000  2.000000
                       2.000000  2.000000  2.000000  2.000000  2.000000  2.000000
                       2.000000  2.000000  2.000000  2.000000  2.000000  2.000000
                       2.000000  2.000000  2.000000  2.000000  2.000000  2.000000
                       2.000000  2.000000  2.000000  2.000000  2.000000  2.000000
                       2.000000  2.000000  2.000000  2.000000  2.000000  2.000000
                       0.000000  0.000000  0.000000
           prtcif           1
            prtwf           0
            rprim      1.0000000000E+00  0.0000000000E+00  0.0000000000E+00
                       0.0000000000E+00  1.0000000000E+00  0.0000000000E+00
                       1.0000000000E-15  1.0000000000E-15  8.3913010243E+00
           shiftk      5.00000000E-01  5.00000000E-01  5.00000000E-01
          spgroup          99
           symrel      1  0  0   0  1  0   0  0  1       1  0  0   0 -1  0   0  0  1
                      -1  0  0   0 -1  0   0  0  1      -1  0  0   0  1  0   0  0  1
                       0  1  0   1  0  0   0  0  1       0  1  0  -1  0  0   0  0  1
                       0 -1  0  -1  0  0   0  0  1       0 -1  0   1  0  0   0  0  1
            tnons      0.0000000  0.0000000  0.0000000     0.0000000 -0.0000000  0.0000000
                      -0.0000000 -0.0000000  0.0000000    -0.0000000  0.0000000  0.0000000
                       0.5000000  0.5000000  0.0000000     0.5000000  0.5000000  0.0000000
                       0.5000000  0.5000000  0.0000000     0.5000000  0.5000000  0.0000000
           toldfe      1.00000000E-07 Hartree
            typat      1  1  1  1  1  1  1  1  2  2  2  2  2  2  2  2  2  2  3  3
           vdw_xc           5
              wtk        0.11111    0.22222    0.22222    0.11111    0.22222    0.11111
           xangst      2.0538509643E+00  5.5610890249E-16  4.6664772030E+00
                       8.8378439303E-16  2.0538509643E+00  7.4161008824E+00
                       2.0538509643E+00  1.2038893889E-15  1.0102198262E+01
                       1.5315648795E-15  2.0538509643E+00  1.2851821942E+01
                       2.0538509643E+00  1.8516698753E-15  1.5537919322E+01
                       2.1793453659E-15  2.0538509643E+00  1.8287543001E+01
                       2.0538509643E+00  2.4994503618E-15  2.0973640381E+01
                       2.8271299600E-15  2.0538509643E+00  2.3723298529E+01
                       5.5989209596E-16  2.0538509643E+00  4.6982231183E+00
                       2.0538509643E+00  8.7999709185E-16  7.3843204982E+00
                       1.2076766901E-15  2.0538509643E+00  1.0133978647E+01
                       2.0538509643E+00  1.5277816860E-15  1.2820076026E+01
                       1.8554571765E-15  2.0538509643E+00  1.5569699706E+01
                       2.0538509643E+00  2.1755621724E-15  1.8255797086E+01
                       2.5032376629E-15  2.0538509643E+00  2.1005420765E+01
                       2.0538509643E+00  2.8233426588E-15  2.3691518145E+01
                       2.0538509643E+00  3.1952704222E-15  2.6812475967E+01
                       3.5515930260E-15  2.0538509643E+00  2.9802486197E+01
                       2.0538509643E+00  2.0538509643E+00  2.8307498317E+01
                       3.3734337780E-15  3.3734337780E-15  2.8307498317E+01
            xcart      3.8812158402E+00  1.0508935258E-15  8.8183639191E+00
                       1.6701104633E-15  3.8812158402E+00  1.4014399642E+01
                       3.8812158402E+00  2.2750212393E-15  1.9090388056E+01
                       2.8942381769E-15  3.8812158402E+00  2.4286423778E+01
                       3.8812158402E+00  3.4991489529E-15  2.9362412193E+01
                       4.1183658905E-15  3.8812158402E+00  3.4558447915E+01
                       3.8812158402E+00  4.7232766665E-15  3.9634436329E+01
                       5.3425013665E-15  3.8812158402E+00  4.4830537189E+01
                       1.0580427253E-15  3.8812158402E+00  8.8783550048E+00
                       3.8812158402E+00  1.6629535013E-15  1.3954343419E+01
                       2.2821782013E-15  3.8812158402E+00  1.9150444278E+01
                       3.8812158402E+00  2.8870889773E-15  2.4226432693E+01
                       3.5063059149E-15  3.8812158402E+00  2.9422468415E+01
                       3.8812158402E+00  4.1112166909E-15  3.4498456829E+01
                       4.7304336285E-15  3.8812158402E+00  3.9694492552E+01
                       3.8812158402E+00  5.3353444045E-15  4.4770480966E+01
                       3.8812158402E+00  6.0381860185E-15  5.0668236522E+01
                       6.7115381547E-15  3.8812158402E+00  5.6318536992E+01
                       3.8812158402E+00  3.8812158402E+00  5.3493419325E+01
                       6.3748659678E-15  6.3748659678E-15  5.3493419325E+01
             xred      5.0000000000E-01  2.5451086397E-32  1.3538200000E-01
                      -1.2553174550E-32  5.0000000000E-01  2.1515300000E-01
                       5.0000000000E-01 -2.5603026039E-32  2.9308100000E-01
                      -4.1574609594E-32  5.0000000000E-01  3.7285200000E-01
                       5.0000000000E-01 -5.4624461082E-32  4.5078000000E-01
                      -1.1466139942E-31  5.0000000000E-01  5.3055100000E-01
                       5.0000000000E-01  2.0200168819E-32  6.0847900000E-01
                      -7.4331858357E-32  5.0000000000E-01  6.8825100000E-01
                      -5.4468158982E-33  5.0000000000E-01  1.3630300000E-01
                       5.0000000000E-01 -1.8496667387E-32  2.1423100000E-01
                      -4.6930662386E-32  5.0000000000E-01  2.9400300000E-01
                       5.0000000000E-01 -1.0676707299E-32  3.7193100000E-01
                       2.7893967515E-32  5.0000000000E-01  4.5170200000E-01
                       5.0000000000E-01  9.6056642341E-33  5.2963000000E-01
                      -5.0431274105E-32  5.0000000000E-01  6.0940100000E-01
                       5.0000000000E-01 -1.1278493217E-31  6.8732900000E-01
                       5.0000000000E-01 -9.3691669479E-32  7.7787300000E-01
                      -1.0526112392E-31  5.0000000000E-01  8.6461800000E-01
                       5.0000000000E-01  5.0000000000E-01  8.2124600000E-01
                      -6.7420134542E-32 -6.7420134542E-32  8.2124600000E-01
            znucl       50.00000   34.00000   30.00000

================================================================================

 chkinp: Checking input parameters for consistency.

================================================================================
== DATASET  1 ==================================================================
-   mpi_nproc: 4, omp_nthreads: -1 (-1 if OMP is not activated)


--- !DatasetInfo
iteration_state: {dtset: 1, }
dimensions: {natom: 20, nkpt: 6, mband: 159, nsppol: 1, nspinor: 1, nspden: 1, mpw: 20052, }
cutoff_energies: {ecut:  22.5, pawecutdg:  -1.0, }
electrons: {nelect:   3.12000000E+02, charge:   0.00000000E+00, occopt:   1.00000000E+00, tsmear:   1.00000000E-02, }
meta: {optdriver: 0, ionmov: 0, optcell: 0, iscf: 17, paral_kgb: 0, }
...

 Exchange-correlation functional for the present dataset will be:
  GGA: Perdew-Burke-Ernzerhof functional - ixc=11
 Citation for XC functional:
  J.P.Perdew, K.Burke, M.Ernzerhof, PRL 77, 3865 (1996)

 Real(R)+Recip(G) space primitive vectors, cartesian coordinates (Bohr,Bohr^-1):
 R(1)=  7.7624317  0.0000000  0.0000000  G(1)=  0.1288256  0.0000000  0.0000000
 R(2)=  0.0000000  7.7624317  0.0000000  G(2)=  0.0000000  0.1288256  0.0000000
 R(3)=  0.0000000  0.0000000 65.1369009  G(3)=  0.0000000  0.0000000  0.0153523
 Unit cell volume ucvol=  3.9248465E+03 bohr^3
 Angles (23,13,12)=  9.00000000E+01  9.00000000E+01  9.00000000E+01 degrees

 getcut: wavevector=  0.0000  0.0000  0.0000  ngfft=  36  36 288
         ecut(hartree)=     22.500   => boxcut(ratio)=   2.07066

--- Pseudopotential description ------------------------------------------------
- pspini: atom type   1  psp file is ../../../Psps_for_tests/ATOMICDATA_NC/Sn.psp8
- pspatm: opening atomic psp file    ../../../Psps_for_tests/ATOMICDATA_NC/Sn.psp8
- Sn    ONCVPSP  r_core=  2.27  2.62  1.86
- 50.00000  14.00000    150810                znucl, zion, pspdat
    8   11    2    4       600   0.00000      pspcod,pspxc,lmax,lloc,mmax,r2well
    5.99000000000000    6.50000000000000    0.00000000000000   rchrg,fchrg,qchrg
     nproj     2     2     2
     extension_switch     1
  pspatm : epsatm=   32.65190642
         --- l  ekb(1:nproj) -->
             0    5.462393    0.682281
             1    4.443814    0.825686
             2   -5.382195   -1.704077
 pspatm: atomic psp has been read  and splines computed

- pspini: atom type   2  psp file is ../../../Psps_for_tests/ATOMICDATA_NC/Se.psp8
- pspatm: opening atomic psp file    ../../../Psps_for_tests/ATOMICDATA_NC/Se.psp8
- Se    ONCVPSP  r_core=  1.82  1.50  1.91
- 34.00000  16.00000    150729                znucl, zion, pspdat
    8   11    2    4       600   0.00000      pspcod,pspxc,lmax,lloc,mmax,r2well
    5.99000000000000    5.00000000000000    0.00000000000000   rchrg,fchrg,qchrg
     nproj     2     2     2
     extension_switch     1
  pspatm : epsatm=   29.53325930
         --- l  ekb(1:nproj) -->
             0    8.612261    0.939919
             1    6.984962    1.281898
             2   -9.322521   -3.856218
 pspatm: atomic psp has been read  and splines computed

- pspini: atom type   3  psp file is ../../../Psps_for_tests/ATOMICDATA_NC/Zn.psp8
- pspatm: opening atomic psp file    ../../../Psps_for_tests/ATOMICDATA_NC/Zn.psp8
- Zn    ONCVPSP  r_core=  1.36  1.66  1.85
- 30.00000  20.00000    161102                znucl, zion, pspdat
    8   11    2    4       600   0.00000      pspcod,pspxc,lmax,lloc,mmax,r2well
    5.99000000000000    2.50000000000000    0.00000000000000   rchrg,fchrg,qchrg
     nproj     2     2     2
     extension_switch     1
  pspatm : epsatm=   26.67245340
         --- l  ekb(1:nproj) -->
             0    2.404235   -1.533451
             1   -4.677427   -1.530630
             2   -7.000316   -2.622858
 pspatm: atomic psp has been read  and splines computed

   1.90286538E+05                                ecore*ucvol(ha*bohr**3)
--------------------------------------------------------------------------------

_setup2: Arith. and geom. avg. npw (full set) are   20018.444   20018.439

================================================================================

--- !BeginCycle
iteration_state: {dtset: 1, }
solver: {iscf: 17, nstep: 150, nline: 4, wfoptalg: 0, }
tolerances: {toldfe: 1.00E-07, }
...

     iter   Etot(hartree)      deltaE(h)  residm     nres2
 ETOT  1  -2218.6141454352    -2.219E+03 8.536E-01 1.975E+03
 ETOT  2  -2418.9183057408    -2.003E+02 3.292E-01 9.319E+03
 ETOT  3  -2286.6024107260     1.323E+02 2.329E+01 5.707E+03
 ETOT  4  -2646.7598254643    -3.602E+02 4.358E+00 1.108E+04
 ETOT  5  -2281.7763527788     3.650E+02 3.807E+00 5.082E+03
 ETOT  6  -2229.2679547526     5.251E+01 7.748E-01 2.994E+03
 ETOT  7  -2242.9400194425    -1.367E+01 3.277E+00 1.452E+03
 ETOT  8  -2250.1977559483    -7.258E+00 9.841E+00 3.273E+03
 ETOT  9  -2285.2433434344    -3.505E+01 3.712E+00 3.992E+03
 ETOT 10  -2285.7543408111    -5.110E-01 8.584E-01 2.739E+03
 ETOT 11  -2286.2215955423    -4.673E-01 5.050E-01 2.003E+03
 ETOT 12  -2258.7085162402     2.751E+01 5.386E-01 1.273E+03
 ETOT 13  -2292.6283295433    -3.392E+01 4.050E-01 1.461E+03
 ETOT 14  -2298.7949852823    -6.167E+00 1.114E-01 1.855E+03
 ETOT 15  -2363.0973995220    -6.430E+01 2.814E+00 2.724E+03
 ETOT 16  -2220.1590942824     1.429E+02 3.467E+00 1.900E+03
 ETOT 17  -2266.9841687907    -4.683E+01 4.591E+00 2.132E+03
 ETOT 18  -2251.9772777035     1.501E+01 3.652E+00 9.084E+02
 ETOT 19  -2242.1766833912     9.801E+00 5.973E-01 3.735E+02
 ETOT 20  -2254.1625174494    -1.199E+01 7.788E-01 3.909E+02
 ETOT 21  -2255.0482377657    -8.857E-01 2.535E-01 3.923E+02
 ETOT 22  -2255.2602911344    -2.121E-01 2.746E-01 3.420E+02
 ETOT 23  -2253.2032209679     2.057E+00 4.326E-02 2.663E+02
 ETOT 24  -2257.8579892539    -4.655E+00 6.845E-02 2.501E+02
 ETOT 25  -2248.4731147735     9.385E+00 2.049E-01 1.028E+02
 ETOT 26  -2250.5983937862    -2.125E+00 9.743E-02 6.937E+01
 ETOT 27  -2259.7864738019    -9.188E+00 3.068E-01 1.438E+02
 ETOT 28  -2247.2397149911     1.255E+01 1.873E-01 1.074E+01
 ETOT 29  -2249.0178205599    -1.778E+00 5.315E-02 9.967E+00
 ETOT 30  -2249.3192314356    -3.014E-01 1.282E-02 1.926E+01
 ETOT 31  -2248.8588903300     4.603E-01 2.027E-02 4.759E+00
 ETOT 32  -2248.7882075229     7.068E-02 1.656E-02 2.116E+00
 ETOT 33  -2248.8079696434    -1.976E-02 8.220E-03 1.709E+00
 ETOT 34  -2248.7451223864     6.285E-02 1.100E-02 7.406E-01
 ETOT 35  -2248.7536558289    -8.533E-03 4.446E-02 4.998E-01
 ETOT 36  -2248.8243081056    -7.065E-02 1.801E-02 1.321E+00
 ETOT 37  -2248.7735006104     5.081E-02 5.176E-03 6.214E-01
 ETOT 38  -2248.7526408250     2.086E-02 3.077E-03 1.750E-01
 ETOT 39  -2248.7491560436     3.485E-03 1.324E-02 3.189E-01
 ETOT 40  -2248.7459211335     3.235E-03 2.102E-03 6.593E-02
 ETOT 41  -2248.7467812668    -8.601E-04 1.304E-03 4.743E-02
 ETOT 42  -2248.7497039661    -2.923E-03 1.559E-03 5.154E-02
 ETOT 43  -2248.7465180879     3.186E-03 4.670E-04 2.517E-02
 ETOT 44  -2248.7448492804     1.669E-03 2.159E-04 1.309E-02
 ETOT 45  -2248.7441587472     6.905E-04 4.549E-04 1.078E-02
 ETOT 46  -2248.7441138661     4.488E-05 1.282E-03 1.913E-02
 ETOT 47  -2248.7436496620     4.642E-04 3.728E-04 1.012E-02
 ETOT 48  -2248.7428914564     7.582E-04 3.155E-04 2.320E-03
 ETOT 49  -2248.7428088287     8.263E-05 1.766E-04 7.655E-04
 ETOT 50  -2248.7427773104     3.152E-05 2.692E-04 4.614E-04
 ETOT 51  -2248.7427632323     1.408E-05 1.182E-04 1.172E-04
 ETOT 52  -2248.7427673183    -4.086E-06 1.275E-04 4.725E-05
 ETOT 53  -2248.7427752300    -7.912E-06 4.683E-05 1.870E-05
 ETOT 54  -2248.7427822392    -7.009E-06 4.589E-05 8.620E-06
 ETOT 55  -2248.7427858320    -3.593E-06 3.726E-05 4.922E-06
 ETOT 56  -2248.7427892184    -3.386E-06 1.507E-05 1.606E-06
 ETOT 57  -2248.7427902837    -1.065E-06 3.583E-05 3.009E-07
 ETOT 58  -2248.7427904625    -1.788E-07 1.129E-05 4.161E-08
 ETOT 59  -2248.7427904820    -1.949E-08 3.317E-05 8.257E-09
 ETOT 60  -2248.7427904829    -9.209E-10 1.039E-05 2.989E-09

 At SCF step   60, etot is converged : 
  for the second time, diff in etot=  9.209E-10 < toldfe=  1.000E-07

 Cartesian components of stress tensor (hartree/bohr^3)
  sigma(1 1)=  1.60734581E-02  sigma(3 2)=  0.00000000E+00
  sigma(2 2)=  1.60734581E-02  sigma(3 1)=  0.00000000E+00
  sigma(3 3)=  1.57963198E-02  sigma(2 1)=  0.00000000E+00


--- !ResultsGS
iteration_state: {dtset: 1, }
comment   : Summary of ground state results
lattice_vectors:
- [  7.7624317,   0.0000000,   0.0000000, ]
- [  0.0000000,   7.7624317,   0.0000000, ]
- [  0.0000000,   0.0000000,  65.1369009, ]
lattice_lengths: [   7.76243,    7.76243,   65.13690, ]
lattice_angles: [ 90.000,  90.000,  90.000, ] # degrees, (23, 13, 12)
lattice_volume:   3.9248465E+03
convergence: {deltae: -9.209E-10, res2:  2.989E-09, residm:  1.039E-05, diffor: null, }
etotal    :  -2.24874279E+03
entropy   :   0.00000000E+00
fermie    :   1.54922722E-01
cartesian_stress_tensor: # hartree/bohr^3
- [  1.60734581E-02,   0.00000000E+00,   0.00000000E+00, ]
- [  0.00000000E+00,   1.60734581E-02,   0.00000000E+00, ]
- [  0.00000000E+00,   0.00000000E+00,   1.57963198E-02, ]
pressure_GPa:  -4.7018E+02
xred      :
- [  5.0000E-01,   2.5451E-32,   1.3538E-01, Sn]
- [ -1.2553E-32,   5.0000E-01,   2.1515E-01, Sn]
- [  5.0000E-01,  -2.5603E-32,   2.9308E-01, Sn]
- [ -4.1575E-32,   5.0000E-01,   3.7285E-01, Sn]
- [  5.0000E-01,  -5.4624E-32,   4.5078E-01, Sn]
- [ -1.1466E-31,   5.0000E-01,   5.3055E-01, Sn]
- [  5.0000E-01,   2.0200E-32,   6.0848E-01, Sn]
- [ -7.4332E-32,   5.0000E-01,   6.8825E-01, Sn]
- [ -5.4468E-33,   5.0000E-01,   1.3630E-01, Se]
- [  5.0000E-01,  -1.8497E-32,   2.1423E-01, Se]
- [ -4.6931E-32,   5.0000E-01,   2.9400E-01, Se]
- [  5.0000E-01,  -1.0677E-32,   3.7193E-01, Se]
- [  2.7894E-32,   5.0000E-01,   4.5170E-01, Se]
- [  5.0000E-01,   9.6057E-33,   5.2963E-01, Se]
- [ -5.0431E-32,   5.0000E-01,   6.0940E-01, Se]
- [  5.0000E-01,  -1.1278E-31,   6.8733E-01, Se]
- [  5.0000E-01,  -9.3692E-32,   7.7787E-01, Se]
- [ -1.0526E-31,   5.0000E-01,   8.6462E-01, Se]
- [  5.0000E-01,   5.0000E-01,   8.2125E-01, Zn]
- [ -6.7420E-32,  -6.7420E-32,   8.2125E-01, Zn]
cartesian_forces: # hartree/bohr
- [ -0.00000000E+00,  -0.00000000E+00,  -1.31994394E-02, ]
- [ -0.00000000E+00,  -0.00000000E+00,  -1.40852919E-02, ]
- [ -0.00000000E+00,  -0.00000000E+00,   3.96498701E-03, ]
- [ -0.00000000E+00,  -0.00000000E+00,  -3.42868847E-03, ]
- [ -0.00000000E+00,  -0.00000000E+00,   3.34731286E-03, ]
- [ -0.00000000E+00,  -0.00000000E+00,  -5.06391231E-03, ]
- [ -0.00000000E+00,  -0.00000000E+00,   1.50534481E-02, ]
- [ -0.00000000E+00,  -0.00000000E+00,   1.55941926E-02, ]
- [ -0.00000000E+00,  -0.00000000E+00,  -1.35618122E-02, ]
- [ -0.00000000E+00,  -0.00000000E+00,  -1.03624984E-02, ]
- [ -0.00000000E+00,  -0.00000000E+00,   2.39904379E-03, ]
- [ -0.00000000E+00,  -0.00000000E+00,  -3.35188949E-04, ]
- [ -0.00000000E+00,  -0.00000000E+00,   1.66957033E-03, ]
- [ -0.00000000E+00,  -0.00000000E+00,  -3.32366799E-03, ]
- [ -0.00000000E+00,  -0.00000000E+00,   1.22514537E-02, ]
- [ -0.00000000E+00,  -0.00000000E+00,   9.62583227E-04, ]
- [ -0.00000000E+00,  -0.00000000E+00,   1.53741145E-02, ]
- [ -0.00000000E+00,  -0.00000000E+00,  -1.00037215E-02, ]
- [ -0.00000000E+00,  -0.00000000E+00,   1.37375748E-03, ]
- [ -0.00000000E+00,  -0.00000000E+00,   1.37375748E-03, ]
force_length_stats: {min:   3.35188949E-04, max:   1.55941926E-02, mean:   7.33642211E-03, }
...

 Integrated electronic density in atomic spheres:
 ------------------------------------------------
 Atom  Sphere_radius  Integrated_density
    1        2.00000         10.54027820
    2        2.00000         10.57915277
    3        2.00000         10.56475570
    4        2.00000         10.57666513
    5        2.00000         10.57496389
    6        2.00000         10.56981926
    7        2.00000         10.58042941
    8        2.00000         10.54825466
    9        2.00000         13.30269743
   10        2.00000         13.34361710
   11        2.00000         13.34031811
   12        2.00000         13.31915331
   13        2.00000         13.32437441
   14        2.00000         13.30738337
   15        2.00000         13.28712952
   16        2.00000         13.28912428
   17        2.00000         13.26617527
   18        2.00000         13.25683578
   19        2.00000         18.08839349
   20        2.00000         18.08839349
================================================================================

 ----iterations are completed or convergence reached----

 Mean square residual over all n,k,spin=   13.883E-09; max=  10.390E-06
 reduced coordinates (array xred) for   20 atoms
       0.500000000000      0.000000000000      0.135382000000
      -0.000000000000      0.500000000000      0.215153000000
       0.500000000000     -0.000000000000      0.293081000000
      -0.000000000000      0.500000000000      0.372852000000
       0.500000000000     -0.000000000000      0.450780000000
      -0.000000000000      0.500000000000      0.530551000000
       0.500000000000      0.000000000000      0.608479000000
      -0.000000000000      0.500000000000      0.688251000000
      -0.000000000000      0.500000000000      0.136303000000
       0.500000000000     -0.000000000000      0.214231000000
      -0.000000000000      0.500000000000      0.294003000000
       0.500000000000     -0.000000000000      0.371931000000
       0.000000000000      0.500000000000      0.451702000000
       0.500000000000      0.000000000000      0.529630000000
      -0.000000000000      0.500000000000      0.609401000000
       0.500000000000     -0.000000000000      0.687329000000
       0.500000000000     -0.000000000000      0.777873000000
      -0.000000000000      0.500000000000      0.864618000000
       0.500000000000      0.500000000000      0.821246000000
      -0.000000000000     -0.000000000000      0.821246000000
 rms dE/dt=  3.4763E-01; max dE/dt=  9.1950E-01; dE/dt below (all hartree)
    1       0.000000000000      0.000000000000      0.861800539385
    2       0.000000000000      0.000000000000      0.919502225794
    3       0.000000000000      0.000000000000     -0.256237003488
    4       0.000000000000      0.000000000000      0.225364103332
    5       0.000000000000      0.000000000000     -0.216003623584
    6       0.000000000000      0.000000000000      0.331877516362
    7       0.000000000000      0.000000000000     -0.978504995047
    8       0.000000000000      0.000000000000     -1.013727418842
    9       0.000000000000      0.000000000000      0.885404379962
   10       0.000000000000      0.000000000000      0.677010995740
   11       0.000000000000      0.000000000000     -0.154236315162
   12       0.000000000000      0.000000000000      0.023863131607
   13       0.000000000000      0.000000000000     -0.106720674937
   14       0.000000000000      0.000000000000      0.218523394643
   15       0.000000000000      0.000000000000     -0.795991764463
   16       0.000000000000      0.000000000000     -0.060669726041
   17       0.000000000000      0.000000000000     -0.999392211953
   18       0.000000000000      0.000000000000      0.653641376569
   19       0.000000000000      0.000000000000     -0.087452342477
   20       0.000000000000      0.000000000000     -0.087452342477

 cartesian coordinates (angstrom) at end:
    1      2.05385096425820     0.00000000000000     4.66647720304041
    2      0.00000000000000     2.05385096425820     7.41610088243454
    3      2.05385096425820     0.00000000000000    10.10219826228218
    4      0.00000000000000     2.05385096425820    12.85182194167631
    5      2.05385096425820     0.00000000000000    15.53791932152395
    6      0.00000000000000     2.05385096425820    18.28754300091808
    7      2.05385096425820     0.00000000000000    20.97364038076572
    8      0.00000000000000     2.05385096425820    23.72329852912325
    9      0.00000000000000     2.05385096425820     4.69822311833196
   10      2.05385096425820     0.00000000000000     7.38432049817959
   11      0.00000000000000     2.05385096425820    10.13397864653713
   12      2.05385096425820     0.00000000000000    12.82007602638476
   13      0.00000000000000     2.05385096425820    15.56969970577890
   14      2.05385096425820     0.00000000000000    18.25579708562653
   15      0.00000000000000     2.05385096425820    21.00542076502067
   16      2.05385096425820     0.00000000000000    23.69151814486831
   17      2.05385096425820     0.00000000000000    26.81247596697236
   18      0.00000000000000     2.05385096425820    29.80248619711920
   19      2.05385096425820     2.05385096425820    28.30749831652748
   20      0.00000000000000     0.00000000000000    28.30749831652748

 cartesian forces (hartree/bohr) at end:
    1     -0.00000000000000    -0.00000000000000    -0.01319943941325
    2     -0.00000000000000    -0.00000000000000    -0.01408529191165
    3     -0.00000000000000    -0.00000000000000     0.00396498700618
    4     -0.00000000000000    -0.00000000000000    -0.00342868846942
    5     -0.00000000000000    -0.00000000000000     0.00334731285618
    6     -0.00000000000000    -0.00000000000000    -0.00506391230629
    7     -0.00000000000000    -0.00000000000000     0.01505344810058
    8     -0.00000000000000    -0.00000000000000     0.01559419264481
    9     -0.00000000000000    -0.00000000000000    -0.01356181220421
   10     -0.00000000000000    -0.00000000000000    -0.01036249843109
   11     -0.00000000000000    -0.00000000000000     0.00239904378659
   12     -0.00000000000000    -0.00000000000000    -0.00033518894905
   13     -0.00000000000000    -0.00000000000000     0.00166957033053
   14     -0.00000000000000    -0.00000000000000    -0.00332366798803
   15     -0.00000000000000    -0.00000000000000     0.01225145371595
   16     -0.00000000000000    -0.00000000000000     0.00096258322718
   17     -0.00000000000000    -0.00000000000000     0.01537411452184
   18     -0.00000000000000    -0.00000000000000    -0.01000372147296
   19     -0.00000000000000    -0.00000000000000     0.00137375747805
   20     -0.00000000000000    -0.00000000000000     0.00137375747805
 frms,max,avg= 5.3369367E-03 1.5594193E-02   0.000E+00  0.000E+00 -3.116E-05 h/b

 cartesian forces (eV/Angstrom) at end:
    1     -0.00000000000000    -0.00000000000000    -0.67874240761010
    2     -0.00000000000000    -0.00000000000000    -0.72429477076185
    3     -0.00000000000000    -0.00000000000000     0.20388781238834
    4     -0.00000000000000    -0.00000000000000    -0.17631023514093
    5     -0.00000000000000    -0.00000000000000     0.17212573321477
    6     -0.00000000000000    -0.00000000000000    -0.26039681861393
    7     -0.00000000000000    -0.00000000000000     0.77407935948902
    8     -0.00000000000000    -0.00000000000000     0.80188555961327
    9     -0.00000000000000    -0.00000000000000    -0.69737636416615
   10     -0.00000000000000    -0.00000000000000    -0.53286104915266
   11     -0.00000000000000    -0.00000000000000     0.12336378119485
   12     -0.00000000000000    -0.00000000000000    -0.01723610731944
   13     -0.00000000000000    -0.00000000000000     0.08585275104017
   14     -0.00000000000000    -0.00000000000000    -0.17090986531052
   15     -0.00000000000000    -0.00000000000000     0.62999502717845
   16     -0.00000000000000    -0.00000000000000     0.04949801553603
   17     -0.00000000000000    -0.00000000000000     0.79056868846638
   18     -0.00000000000000    -0.00000000000000    -0.51441199773979
   19     -0.00000000000000    -0.00000000000000     0.07064144384706
   20     -0.00000000000000    -0.00000000000000     0.07064144384706
 frms,max,avg= 2.7443630E-01 8.0188556E-01   0.000E+00  0.000E+00 -1.603E-03 e/A
 length scales=  7.762431680422  7.762431680422  7.762431680422 bohr
              =  4.107701928516  4.107701928516  4.107701928516 angstroms
 prteigrs : about to open file Cs2TiI6o_EIG
 Fermi (or HOMO) energy (hartree) =   0.15492   Average Vxc (hartree)=  -0.32615
 Eigenvalues (hartree) for nkpt=   6  k points:
 kpt#   1, nband=159, wtk=  0.11111, kpt=  0.0833  0.0833  0.5000 (reduced coord)
  -4.70488   -4.70487   -2.94192   -2.94179   -2.93995   -2.93978   -2.93956   -2.93949
  -1.66447   -1.66423   -1.66322   -1.66246   -1.66230   -1.66183   -1.66115   -1.66079
  -1.66022   -1.65949   -1.65900   -1.65868   -1.65832   -1.65828   -1.65819   -1.65784
  -1.65695   -1.65687   -1.65675   -1.65658   -1.65652   -1.65610   -1.65508   -1.65482
  -1.65481   -1.65427   -1.65397   -1.65311   -1.65303   -1.65268   -1.65248   -1.65171
  -1.65109   -1.64906   -1.64835   -1.64813   -1.64789   -1.64627   -1.64455   -1.64334
  -1.63711   -1.63630   -1.63584   -1.63409   -1.63366   -1.63327   -1.63286   -1.63215
  -1.62992   -1.62970   -0.65851   -0.65769   -0.65687   -0.65678   -0.65614   -0.65599
  -0.65588   -0.65574   -0.65573   -0.65498   -0.65480   -0.65461   -0.65459   -0.65443
  -0.65423   -0.65418   -0.65343   -0.65330   -0.65279   -0.65271   -0.65062   -0.64903
  -0.64896   -0.64877   -0.64860   -0.64857   -0.64839   -0.64821   -0.64813   -0.64808
  -0.64803   -0.64685   -0.64671   -0.64668   -0.64649   -0.64644   -0.64566   -0.64561
  -0.64522   -0.64517   -0.41176   -0.40487   -0.39486   -0.38328   -0.37783   -0.36793
  -0.35553   -0.35146   -0.34067   -0.33912   -0.16784   -0.16545   -0.16502   -0.16497
  -0.16407   -0.15237   -0.15190   -0.15100   -0.14671   -0.14454   -0.13417   -0.13320
  -0.12004   -0.11629   -0.09893   -0.09232   -0.07169   -0.06518   -0.05283   -0.04403
  -0.03370   -0.02919   -0.02077   -0.00872   -0.00354    0.00475    0.00910    0.01178
   0.01484    0.01816    0.02111    0.02688    0.03320    0.03595    0.03852    0.04334
   0.04751    0.05162    0.05262    0.06430    0.07916    0.08202    0.08538    0.08662
   0.08976    0.09777    0.12792    0.13272    0.18296    0.19809    0.21188
 prteigrs : prtvol=0 or 1, do not print more k-points.


--- !EnergyTerms
iteration_state     : {dtset: 1, }
comment             : Components of total free energy in Hartree
kinetic             :  1.30327689376956E+03
hartree             :  2.60164711333564E+03
xc                  : -4.59125070730173E+02
Ewald energy        :  7.27738030419680E+02
psp_core            :  4.84825430959148E+01
local_psp           : -5.70413165675546E+03
non_local_psp       : -7.66372353175532E+02
VdWaals_dft_d       : -2.58259049307805E-01
total_energy        : -2.24874275908969E+03
...


--- !EnergyTermsDC
iteration_state     : {dtset: 1, }
comment             : '"Double-counting" decomposition of free energy'
band_energy         : -2.81822996572849E+02
Ewald energy        :  7.27738030419680E+02
psp_core            :  4.84825430959148E+01
xc_dc               : -2.74288210837638E+03
VdWaals_dft_d       : -2.58259049307805E-01
total_energy_dc     : -2.24874279048294E+03
...


 Cartesian components of stress tensor (hartree/bohr^3)
  sigma(1 1)=  1.60734581E-02  sigma(3 2)=  0.00000000E+00
  sigma(2 2)=  1.60734581E-02  sigma(3 1)=  0.00000000E+00
  sigma(3 3)=  1.57963198E-02  sigma(2 1)=  0.00000000E+00

-Cartesian components of stress tensor (GPa)         [Pressure= -4.7018E+02 GPa]
- sigma(1 1)=  4.72897384E+02  sigma(3 2)=  0.00000000E+00
- sigma(2 2)=  4.72897384E+02  sigma(3 1)=  0.00000000E+00
- sigma(3 3)=  4.64743694E+02  sigma(2 1)=  0.00000000E+00

== END DATASET(S) ==============================================================
================================================================================
  
 -outvars: echo values of variables after computation  --------
            acell      7.7624316804E+00  7.7624316804E+00  7.7624316804E+00 Bohr
              amu      1.18710000E+02  7.89600000E+01  6.53900000E+01
           diemac      1.20000000E+01
             ecut      2.25000000E+01 Hartree
           etotal     -2.2487427905E+03
            fcart     -0.0000000000E+00 -0.0000000000E+00 -1.3199439413E-02
                      -0.0000000000E+00 -0.0000000000E+00 -1.4085291912E-02
                      -0.0000000000E+00 -0.0000000000E+00  3.9649870062E-03
                      -0.0000000000E+00 -0.0000000000E+00 -3.4286884694E-03
                      -0.0000000000E+00 -0.0000000000E+00  3.3473128562E-03
                      -0.0000000000E+00 -0.0000000000E+00 -5.0639123063E-03
                      -0.0000000000E+00 -0.0000000000E+00  1.5053448101E-02
                      -0.0000000000E+00 -0.0000000000E+00  1.5594192645E-02
                      -0.0000000000E+00 -0.0000000000E+00 -1.3561812204E-02
                      -0.0000000000E+00 -0.0000000000E+00 -1.0362498431E-02
                      -0.0000000000E+00 -0.0000000000E+00  2.3990437866E-03
                      -0.0000000000E+00 -0.0000000000E+00 -3.3518894905E-04
                      -0.0000000000E+00 -0.0000000000E+00  1.6695703305E-03
                      -0.0000000000E+00 -0.0000000000E+00 -3.3236679880E-03
                      -0.0000000000E+00 -0.0000000000E+00  1.2251453716E-02
                      -0.0000000000E+00 -0.0000000000E+00  9.6258322718E-04
                      -0.0000000000E+00 -0.0000000000E+00  1.5374114522E-02
                      -0.0000000000E+00 -0.0000000000E+00 -1.0003721473E-02
                      -0.0000000000E+00 -0.0000000000E+00  1.3737574780E-03
                      -0.0000000000E+00 -0.0000000000E+00  1.3737574780E-03
-          fftalg         112
             iscf          17
              ixc          11
              kpt      8.33333333E-02  8.33333333E-02  5.00000000E-01
                       2.50000000E-01  8.33333333E-02  5.00000000E-01
                       4.16666667E-01  8.33333333E-02  5.00000000E-01
                       2.50000000E-01  2.50000000E-01  5.00000000E-01
                       4.16666667E-01  2.50000000E-01  5.00000000E-01
                       4.16666667E-01  4.16666667E-01  5.00000000E-01
         kptrlatt        6    0    0      0    6    0      0    0    1
          kptrlen      4.65745901E+01
P           mkmem           2
            natom          20
            nband         159
            ngfft          36      36     288
             nkpt           6
            nstep         150
             nsym           8
           ntypat           3
              occ      2.000000  2.000000  2.000000  2.000000  2.000000  2.000000
                       2.000000  2.000000  2.000000  2.000000  2.000000  2.000000
                       2.000000  2.000000  2.000000  2.000000  2.000000  2.000000
                       2.000000  2.000000  2.000000  2.000000  2.000000  2.000000
                       2.000000  2.000000  2.000000  2.000000  2.000000  2.000000
                       2.000000  2.000000  2.000000  2.000000  2.000000  2.000000
                       2.000000  2.000000  2.000000  2.000000  2.000000  2.000000
                       2.000000  2.000000  2.000000  2.000000  2.000000  2.000000
                       2.000000  2.000000  2.000000  2.000000  2.000000  2.000000
                       2.000000  2.000000  2.000000  2.000000  2.000000  2.000000
                       2.000000  2.000000  2.000000  2.000000  2.000000  2.000000
                       2.000000  2.000000  2.000000  2.000000  2.000000  2.000000
                       2.000000  2.000000  2.000000  2.000000  2.000000  2.000000
                       2.000000  2.000000  2.000000  2.000000  2.000000  2.000000
                       2.000000  2.000000  2.000000  2.000000  2.000000  2.000000
                       2.000000  2.000000  2.000000  2.000000  2.000000  2.000000
                       2.000000  2.000000  2.000000  2.000000  2.000000  2.000000
                       2.000000  2.000000  2.000000  2.000000  2.000000  2.000000
                       2.000000  2.000000  2.000000  2.000000  2.000000  2.000000
                       2.000000  2.000000  2.000000  2.000000  2.000000  2.000000
                       2.000000  2.000000  2.000000  2.000000  2.000000  2.000000
                       2.000000  2.000000  2.000000  2.000000  2.000000  2.000000
                       2.000000  2.000000  2.000000  2.000000  2.000000  2.000000
                       2.000000  2.000000  2.000000  2.000000  2.000000  2.000000
                       2.000000  2.000000  2.000000  2.000000  2.000000  2.000000
                       2.000000  2.000000  2.000000  2.000000  2.000000  2.000000
                       0.000000  0.000000  0.000000
           prtcif           1
            prtwf           0
            rprim      1.0000000000E+00  0.0000000000E+00  0.0000000000E+00
                       0.0000000000E+00  1.0000000000E+00  0.0000000000E+00
                       1.0000000000E-15  1.0000000000E-15  8.3913010243E+00
           shiftk      5.00000000E-01  5.00000000E-01  5.00000000E-01
          spgroup          99
           strten      1.6073458100E-02  1.6073458100E-02  1.5796319758E-02
                       0.0000000000E+00  0.0000000000E+00  0.0000000000E+00
           symrel      1  0  0   0  1  0   0  0  1       1  0  0   0 -1  0   0  0  1
                      -1  0  0   0 -1  0   0  0  1      -1  0  0   0  1  0   0  0  1
                       0  1  0   1  0  0   0  0  1       0  1  0  -1  0  0   0  0  1
                       0 -1  0  -1  0  0   0  0  1       0 -1  0   1  0  0   0  0  1
            tnons      0.0000000  0.0000000  0.0000000     0.0000000 -0.0000000  0.0000000
                      -0.0000000 -0.0000000  0.0000000    -0.0000000  0.0000000  0.0000000
                       0.5000000  0.5000000  0.0000000     0.5000000  0.5000000  0.0000000
                       0.5000000  0.5000000  0.0000000     0.5000000  0.5000000  0.0000000
           toldfe      1.00000000E-07 Hartree
            typat      1  1  1  1  1  1  1  1  2  2  2  2  2  2  2  2  2  2  3  3
           vdw_xc           5
              wtk        0.11111    0.22222    0.22222    0.11111    0.22222    0.11111
           xangst      2.0538509643E+00  5.5610890249E-16  4.6664772030E+00
                       8.8378439303E-16  2.0538509643E+00  7.4161008824E+00
                       2.0538509643E+00  1.2038893889E-15  1.0102198262E+01
                       1.5315648795E-15  2.0538509643E+00  1.2851821942E+01
                       2.0538509643E+00  1.8516698753E-15  1.5537919322E+01
                       2.1793453659E-15  2.0538509643E+00  1.8287543001E+01
                       2.0538509643E+00  2.4994503618E-15  2.0973640381E+01
                       2.8271299600E-15  2.0538509643E+00  2.3723298529E+01
                       5.5989209596E-16  2.0538509643E+00  4.6982231183E+00
                       2.0538509643E+00  8.7999709185E-16  7.3843204982E+00
                       1.2076766901E-15  2.0538509643E+00  1.0133978647E+01
                       2.0538509643E+00  1.5277816860E-15  1.2820076026E+01
                       1.8554571765E-15  2.0538509643E+00  1.5569699706E+01
                       2.0538509643E+00  2.1755621724E-15  1.8255797086E+01
                       2.5032376629E-15  2.0538509643E+00  2.1005420765E+01
                       2.0538509643E+00  2.8233426588E-15  2.3691518145E+01
                       2.0538509643E+00  3.1952704222E-15  2.6812475967E+01
                       3.5515930260E-15  2.0538509643E+00  2.9802486197E+01
                       2.0538509643E+00  2.0538509643E+00  2.8307498317E+01
                       3.3734337780E-15  3.3734337780E-15  2.8307498317E+01
            xcart      3.8812158402E+00  1.0508935258E-15  8.8183639191E+00
                       1.6701104633E-15  3.8812158402E+00  1.4014399642E+01
                       3.8812158402E+00  2.2750212393E-15  1.9090388056E+01
                       2.8942381769E-15  3.8812158402E+00  2.4286423778E+01
                       3.8812158402E+00  3.4991489529E-15  2.9362412193E+01
                       4.1183658905E-15  3.8812158402E+00  3.4558447915E+01
                       3.8812158402E+00  4.7232766665E-15  3.9634436329E+01
                       5.3425013665E-15  3.8812158402E+00  4.4830537189E+01
                       1.0580427253E-15  3.8812158402E+00  8.8783550048E+00
                       3.8812158402E+00  1.6629535013E-15  1.3954343419E+01
                       2.2821782013E-15  3.8812158402E+00  1.9150444278E+01
                       3.8812158402E+00  2.8870889773E-15  2.4226432693E+01
                       3.5063059149E-15  3.8812158402E+00  2.9422468415E+01
                       3.8812158402E+00  4.1112166909E-15  3.4498456829E+01
                       4.7304336285E-15  3.8812158402E+00  3.9694492552E+01
                       3.8812158402E+00  5.3353444045E-15  4.4770480966E+01
                       3.8812158402E+00  6.0381860185E-15  5.0668236522E+01
                       6.7115381547E-15  3.8812158402E+00  5.6318536992E+01
                       3.8812158402E+00  3.8812158402E+00  5.3493419325E+01
                       6.3748659678E-15  6.3748659678E-15  5.3493419325E+01
             xred      5.0000000000E-01  2.5451086397E-32  1.3538200000E-01
                      -1.2553174550E-32  5.0000000000E-01  2.1515300000E-01
                       5.0000000000E-01 -2.5603026039E-32  2.9308100000E-01
                      -4.1574609594E-32  5.0000000000E-01  3.7285200000E-01
                       5.0000000000E-01 -5.4624461082E-32  4.5078000000E-01
                      -1.1466139942E-31  5.0000000000E-01  5.3055100000E-01
                       5.0000000000E-01  2.0200168819E-32  6.0847900000E-01
                      -7.4331858357E-32  5.0000000000E-01  6.8825100000E-01
                      -5.4468158982E-33  5.0000000000E-01  1.3630300000E-01
                       5.0000000000E-01 -1.8496667387E-32  2.1423100000E-01
                      -4.6930662386E-32  5.0000000000E-01  2.9400300000E-01
                       5.0000000000E-01 -1.0676707299E-32  3.7193100000E-01
                       2.7893967515E-32  5.0000000000E-01  4.5170200000E-01
                       5.0000000000E-01  9.6056642341E-33  5.2963000000E-01
                      -5.0431274105E-32  5.0000000000E-01  6.0940100000E-01
                       5.0000000000E-01 -1.1278493217E-31  6.8732900000E-01
                       5.0000000000E-01 -9.3691669479E-32  7.7787300000E-01
                      -1.0526112392E-31  5.0000000000E-01  8.6461800000E-01
                       5.0000000000E-01  5.0000000000E-01  8.2124600000E-01
                      -6.7420134542E-32 -6.7420134542E-32  8.2124600000E-01
            znucl       50.00000   34.00000   30.00000

================================================================================


- Timing analysis has been suppressed with timopt=0



================================================================================

 Suggested references for the acknowledgment of ABINIT usage.

 The users of ABINIT have little formal obligations with respect to the ABINIT group
 (those specified in the GNU General Public License, http://www.gnu.org/copyleft/gpl.txt).
 However, it is common practice in the scientific literature,
 to acknowledge the efforts of people that have made the research possible.
 In this spirit, please find below suggested citations of work written by ABINIT developers,
 corresponding to implementations inside of ABINIT that you have used in the present run.
 Note also that it will be of great value to readers of publications presenting these results,
 to read papers enabling them to understand the theoretical formalism and details
 of the ABINIT implementation.
 For information on why they are suggested, see also https://docs.abinit.org/theory/acknowledgments.
-
- [1] The Abinit project: Impact, environment and recent developments.
- Computer Phys. Comm. 248, 107042 (2020).
- X.Gonze, B. Amadon, G. Antonius, F.Arnardi, L.Baguet, J.-M.Beuken,
- J.Bieder, F.Bottin, J.Bouchet, E.Bousquet, N.Brouwer, F.Bruneval,
- G.Brunin, T.Cavignac, J.-B. Charraud, Wei Chen, M.Cote, S.Cottenier,
- J.Denier, G.Geneste, Ph.Ghosez, M.Giantomassi, Y.Gillet, O.Gingras,
- D.R.Hamann, G.Hautier, Xu He, N.Helbig, N.Holzwarth, Y.Jia, F.Jollet,
- W.Lafargue-Dit-Hauret, K.Lejaeghere, M.A.L.Marques, A.Martin, C.Martins,
- H.P.C. Miranda, F.Naccarato, K. Persson, G.Petretto, V.Planes, Y.Pouillon,
- S.Prokhorenko, F.Ricci, G.-M.Rignanese, A.H.Romero, M.M.Schmitt, M.Torrent,
- M.J.van Setten, B.Van Troeye, M.J.Verstraete, G.Zerah and J.W.Zwanzig
- Comment: the fifth generic paper describing the ABINIT project.
- Note that a version of this paper, that is not formatted for Computer Phys. Comm. 
- is available at https://www.abinit.org/sites/default/files/ABINIT20.pdf .
- The licence allows the authors to put it on the Web.
- DOI and bibtex: see https://docs.abinit.org/theory/bibliography/#gonze2020
-
- [2] Optimized norm-conserving Vanderbilt pseudopotentials.
- D.R. Hamann, Phys. Rev. B 88, 085117 (2013).
- Comment: Some pseudopotential generated using the ONCVPSP code were used.
- DOI and bibtex: see https://docs.abinit.org/theory/bibliography/#hamann2013
-
- [3] ABINIT: Overview, and focus on selected capabilities
- J. Chem. Phys. 152, 124102 (2020).
- A. Romero, D.C. Allan, B. Amadon, G. Antonius, T. Applencourt, L.Baguet,
- J.Bieder, F.Bottin, J.Bouchet, E.Bousquet, F.Bruneval,
- G.Brunin, D.Caliste, M.Cote,
- J.Denier, C. Dreyer, Ph.Ghosez, M.Giantomassi, Y.Gillet, O.Gingras,
- D.R.Hamann, G.Hautier, F.Jollet, G. Jomard,
- A.Martin, 
- H.P.C. Miranda, F.Naccarato, G.Petretto, N.A. Pike, V.Planes,
- S.Prokhorenko, T. Rangel, F.Ricci, G.-M.Rignanese, M.Royo, M.Stengel, M.Torrent,
- M.J.van Setten, B.Van Troeye, M.J.Verstraete, J.Wiktor, J.W.Zwanziger, and X.Gonze.
- Comment: a global overview of ABINIT, with focus on selected capabilities .
- Note that a version of this paper, that is not formatted for J. Chem. Phys 
- is available at https://www.abinit.org/sites/default/files/ABINIT20_JPC.pdf .
- The licence allows the authors to put it on the Web.
- DOI and bibtex: see https://docs.abinit.org/theory/bibliography/#romero2020
-
- [4] Recent developments in the ABINIT software package.
- Computer Phys. Comm. 205, 106 (2016).
- X.Gonze, F.Jollet, F.Abreu Araujo, D.Adams, B.Amadon, T.Applencourt,
- C.Audouze, J.-M.Beuken, J.Bieder, A.Bokhanchuk, E.Bousquet, F.Bruneval
- D.Caliste, M.Cote, F.Dahm, F.Da Pieve, M.Delaveau, M.Di Gennaro,
- B.Dorado, C.Espejo, G.Geneste, L.Genovese, A.Gerossier, M.Giantomassi,
- Y.Gillet, D.R.Hamann, L.He, G.Jomard, J.Laflamme Janssen, S.Le Roux,
- A.Levitt, A.Lherbier, F.Liu, I.Lukacevic, A.Martin, C.Martins,
- M.J.T.Oliveira, S.Ponce, Y.Pouillon, T.Rangel, G.-M.Rignanese,
- A.H.Romero, B.Rousseau, O.Rubel, A.A.Shukri, M.Stankovski, M.Torrent,
- M.J.Van Setten, B.Van Troeye, M.J.Verstraete, D.Waroquier, J.Wiktor,
- B.Xu, A.Zhou, J.W.Zwanziger.
- Comment: the fourth generic paper describing the ABINIT project.
- Note that a version of this paper, that is not formatted for Computer Phys. Comm. 
- is available at https://www.abinit.org/sites/default/files/ABINIT16.pdf .
- The licence allows the authors to put it on the Web.
- DOI and bibtex: see https://docs.abinit.org/theory/bibliography/#gonze2016
-
- And optionally:
-
- [5] ABINIT: First-principles approach of materials and nanosystem properties.
- Computer Phys. Comm. 180, 2582-2615 (2009).
- X. Gonze, B. Amadon, P.-M. Anglade, J.-M. Beuken, F. Bottin, P. Boulanger, F. Bruneval,
- D. Caliste, R. Caracas, M. Cote, T. Deutsch, L. Genovese, Ph. Ghosez, M. Giantomassi
- S. Goedecker, D.R. Hamann, P. Hermet, F. Jollet, G. Jomard, S. Leroux, M. Mancini, S. Mazevet,
- M.J.T. Oliveira, G. Onida, Y. Pouillon, T. Rangel, G.-M. Rignanese, D. Sangalli, R. Shaltaf,
- M. Torrent, M.J. Verstraete, G. Zerah, J.W. Zwanziger
- Comment: the third generic paper describing the ABINIT project.
- Note that a version of this paper, that is not formatted for Computer Phys. Comm. 
- is available at https://www.abinit.org/sites/default/files/ABINIT_CPC_v10.pdf .
- The licence allows the authors to put it on the Web.
- DOI and bibtex: see https://docs.abinit.org/theory/bibliography/#gonze2009
-
- Proc.   0 individual time (sec): cpu=       3951.8  wall=       3956.3

================================================================================

 Calculation completed.
.Delivered   0 WARNINGs and   0 COMMENTs to log file.
+Overall time at end (sec) : cpu=      15809.9  wall=      15825.1
