
.Version 9.2.2 of ABINIT 
.(MPI version, prepared for a x86_64_linux_gnu9.3 computer) 

.Copyright (C) 1998-2020 ABINIT group . 
 ABINIT comes with ABSOLUTELY NO WARRANTY.
 It is free software, and you are welcome to redistribute it
 under certain conditions (GNU General Public License,
 see ~abinit/COPYING or http://www.gnu.org/copyleft/gpl.txt).

 ABINIT is a project of the Universite Catholique de Louvain,
 Corning Inc. and other collaborators, see ~abinit/doc/developers/contributors.txt .
 Please read https://docs.abinit.org/theory/acknowledgments for suggested
 acknowledgments of the ABINIT effort.
 For more information, see https://www.abinit.org .

.Starting date : Thu 29 Feb 2024.
- ( at 02h10 )
  
- The starting date is more than 3 years after the initial release
- of this version of ABINIT, namely Nov 2020.
- This version of ABINIT is not supported anymore.
- Action: please, switch to a more recent version of ABINIT.
- input  file    -> Cs2TiI6.in
- output file    -> Cs2TiI6.out
- root for input  files -> Cs2TiI6i
- root for output files -> Cs2TiI6o


 DATASET    1 : space group P4/n m m (#129); Bravais tP (primitive tetrag.)
================================================================================
 Values of the parameters that define the memory need for DATASET  1.
     intxc =       0    ionmov =       0      iscf =       7    lmnmax =       6
     lnmax =       6     mgfft =     240  mpssoang =       3    mqgrid =   11456
     natom =      16  nloc_mem =       1    nspden =       1   nspinor =       1
    nsppol =       1      nsym =      16    n1xccc =    2501    ntypat =       2
    occopt =       1   xclevel =       2
-    mband =         122        mffmem =           1         mkmem =           1
       mpw =       16512          nfft =      311040          nkpt =           6
================================================================================
P This job should need less than                     134.406 Mbytes of memory.
  Rough estimation (10% accuracy) of disk space for files :
_ WF disk file :    184.432 Mbytes ; DEN or POT disk file :      2.375 Mbytes.
================================================================================


 DATASET    2 : space group P4/n m m (#129); Bravais tP (primitive tetrag.)
================================================================================
 Values of the parameters that define the memory need for DATASET  2.
     intxc =       0    ionmov =       0      iscf =      -2    lmnmax =       6
     lnmax =       6     mgfft =     240  mpssoang =       3    mqgrid =   11456
     natom =      16  nloc_mem =       1    nspden =       1   nspinor =       1
    nsppol =       1      nsym =      16    n1xccc =    2501    ntypat =       2
    occopt =       1   xclevel =       2
-    mband =         250        mffmem =           1         mkmem =           1
       mpw =       16512          nfft =      311040          nkpt =           6
================================================================================
P This job should need less than                     126.332 Mbytes of memory.
  Rough estimation (10% accuracy) of disk space for files :
_ WF disk file :    377.932 Mbytes ; DEN or POT disk file :      2.375 Mbytes.
================================================================================


 DATASET    3 : space group P4/n m m (#129); Bravais tP (primitive tetrag.)
================================================================================
 Values of the parameters that define the memory need for DATASET  3.
     intxc =       0    ionmov =       0      iscf =      -2    lmnmax =       6
     lnmax =       6     mgfft =     240  mpssoang =       3    mqgrid =   11456
     natom =      16  nloc_mem =       1    nspden =       1   nspinor =       1
    nsppol =       1      nsym =      16    n1xccc =    2501    ntypat =       2
    occopt =       1   xclevel =       2
-    mband =         250        mffmem =           1         mkmem =           3
       mpw =       16512          nfft =      311040          nkpt =          18
================================================================================
P This job should need less than                     252.755 Mbytes of memory.
  Rough estimation (10% accuracy) of disk space for files :
_ WF disk file :   1133.791 Mbytes ; DEN or POT disk file :      2.375 Mbytes.
================================================================================


 DATASET    4 : space group P4/n m m (#129); Bravais tP (primitive tetrag.)
================================================================================
 Values of the parameters that define the memory need for DATASET  4 (RF).
     intxc =       0      iscf =      -3    lmnmax =       6     lnmax =       6
     mgfft =     240  mpssoang =       3    mqgrid =   11456     natom =      16
  nloc_mem =       1    nspden =       1   nspinor =       1    nsppol =       1
      nsym =      16    n1xccc =    2501    ntypat =       2    occopt =       1
   xclevel =       2
-    mband =         250        mffmem =           1         mkmem =           3
-   mkqmem =           3        mk1mem =           3           mpw =       16512
      nfft =      311040          nkpt =          18
================================================================================
P This job should need less than                     661.182 Mbytes of memory.
  Rough estimation (10% accuracy) of disk space for files :
_ WF disk file :   1133.791 Mbytes ; DEN or POT disk file :      2.375 Mbytes.
================================================================================


 DATASET    5 : space group P4/n m m (#129); Bravais tP (primitive tetrag.)
================================================================================
 Values of the parameters that define the memory need for DATASET  5 (RF).
     intxc =       0      iscf =      -3    lmnmax =       6     lnmax =       6
     mgfft =     240  mpssoang =       3    mqgrid =   11456     natom =      16
  nloc_mem =       1    nspden =       1   nspinor =       1    nsppol =       1
      nsym =      16    n1xccc =    2501    ntypat =       2    occopt =       1
   xclevel =       2
-    mband =         250        mffmem =           1         mkmem =           3
-   mkqmem =           3        mk1mem =           3           mpw =       16512
      nfft =      311040          nkpt =          18
================================================================================
P This job should need less than                     661.182 Mbytes of memory.
  Rough estimation (10% accuracy) of disk space for files :
_ WF disk file :   1133.791 Mbytes ; DEN or POT disk file :      2.375 Mbytes.
================================================================================


 DATASET    6 : space group P4/n m m (#129); Bravais tP (primitive tetrag.)
================================================================================
 Values of the parameters that define the memory need for DATASET  6 (RF).
     intxc =       0      iscf =      -3    lmnmax =       6     lnmax =       6
     mgfft =     240  mpssoang =       3    mqgrid =   11456     natom =      16
  nloc_mem =       1    nspden =       1   nspinor =       1    nsppol =       1
      nsym =      16    n1xccc =    2501    ntypat =       2    occopt =       1
   xclevel =       2
-    mband =         250        mffmem =           1         mkmem =           3
-   mkqmem =           3        mk1mem =           3           mpw =       16512
      nfft =      311040          nkpt =          18
================================================================================
P This job should need less than                     661.182 Mbytes of memory.
  Rough estimation (10% accuracy) of disk space for files :
_ WF disk file :   1133.791 Mbytes ; DEN or POT disk file :      2.375 Mbytes.
================================================================================

--------------------------------------------------------------------------------
------------- Echo of variables that govern the present computation ------------
--------------------------------------------------------------------------------
-
- outvars: echo of selected default values                                      
-   iomode0 =  0 , fftalg0 =112 , wfoptalg0 =  0
-
- outvars: echo of global parameters not present in the input file              
-  max_nthreads =    0
-
 -outvars: echo values of preprocessed input variables --------
            acell      7.7624316804E+00  7.7624316804E+00  7.7624316804E+00 Bohr
              amu      1.18710000E+02  7.89600000E+01
           diemac      1.20000000E+01
             ecut      2.25000000E+01 Hartree
-          fftalg         112
           getden1          0
           getden2          1
           getden3          1
           getden4          0
           getden5          0
           getden6          0
           getwfk1          0
           getwfk2          1
           getwfk3          2
           getwfk4          3
           getwfk5          3
           getwfk6          3
             iscf1          7
             iscf2         -2
             iscf3         -2
             iscf4         -3
             iscf5         -3
             iscf6         -3
              ixc          11
           jdtset        1    2    3    4    5    6
              kpt1     8.33333333E-02  8.33333333E-02  5.00000000E-01
                       2.50000000E-01  8.33333333E-02  5.00000000E-01
                       4.16666667E-01  8.33333333E-02  5.00000000E-01
                       2.50000000E-01  2.50000000E-01  5.00000000E-01
                       4.16666667E-01  2.50000000E-01  5.00000000E-01
                       4.16666667E-01  4.16666667E-01  5.00000000E-01
              kpt2     8.33333333E-02  8.33333333E-02  5.00000000E-01
                       2.50000000E-01  8.33333333E-02  5.00000000E-01
                       4.16666667E-01  8.33333333E-02  5.00000000E-01
                       2.50000000E-01  2.50000000E-01  5.00000000E-01
                       4.16666667E-01  2.50000000E-01  5.00000000E-01
                       4.16666667E-01  4.16666667E-01  5.00000000E-01
              kpt3     8.33333333E-02  8.33333333E-02  5.00000000E-01
                       2.50000000E-01  8.33333333E-02  5.00000000E-01
                       4.16666667E-01  8.33333333E-02  5.00000000E-01
                      -4.16666667E-01  8.33333333E-02  5.00000000E-01
                      -2.50000000E-01  8.33333333E-02  5.00000000E-01
                      -8.33333333E-02  8.33333333E-02  5.00000000E-01
                       8.33333333E-02  2.50000000E-01  5.00000000E-01
                       2.50000000E-01  2.50000000E-01  5.00000000E-01
                       4.16666667E-01  2.50000000E-01  5.00000000E-01
                      -4.16666667E-01  2.50000000E-01  5.00000000E-01
                      -2.50000000E-01  2.50000000E-01  5.00000000E-01
                      -8.33333333E-02  2.50000000E-01  5.00000000E-01
                       8.33333333E-02  4.16666667E-01  5.00000000E-01
                       2.50000000E-01  4.16666667E-01  5.00000000E-01
                       4.16666667E-01  4.16666667E-01  5.00000000E-01
                      -4.16666667E-01  4.16666667E-01  5.00000000E-01
                      -2.50000000E-01  4.16666667E-01  5.00000000E-01
                      -8.33333333E-02  4.16666667E-01  5.00000000E-01
              kpt4     8.33333333E-02  8.33333333E-02  5.00000000E-01
                       2.50000000E-01  8.33333333E-02  5.00000000E-01
                       4.16666667E-01  8.33333333E-02  5.00000000E-01
                      -4.16666667E-01  8.33333333E-02  5.00000000E-01
                      -2.50000000E-01  8.33333333E-02  5.00000000E-01
                      -8.33333333E-02  8.33333333E-02  5.00000000E-01
                       8.33333333E-02  2.50000000E-01  5.00000000E-01
                       2.50000000E-01  2.50000000E-01  5.00000000E-01
                       4.16666667E-01  2.50000000E-01  5.00000000E-01
                      -4.16666667E-01  2.50000000E-01  5.00000000E-01
                      -2.50000000E-01  2.50000000E-01  5.00000000E-01
                      -8.33333333E-02  2.50000000E-01  5.00000000E-01
                       8.33333333E-02  4.16666667E-01  5.00000000E-01
                       2.50000000E-01  4.16666667E-01  5.00000000E-01
                       4.16666667E-01  4.16666667E-01  5.00000000E-01
                      -4.16666667E-01  4.16666667E-01  5.00000000E-01
                      -2.50000000E-01  4.16666667E-01  5.00000000E-01
                      -8.33333333E-02  4.16666667E-01  5.00000000E-01
              kpt5     8.33333333E-02  8.33333333E-02  5.00000000E-01
                       2.50000000E-01  8.33333333E-02  5.00000000E-01
                       4.16666667E-01  8.33333333E-02  5.00000000E-01
                      -4.16666667E-01  8.33333333E-02  5.00000000E-01
                      -2.50000000E-01  8.33333333E-02  5.00000000E-01
                      -8.33333333E-02  8.33333333E-02  5.00000000E-01
                       8.33333333E-02  2.50000000E-01  5.00000000E-01
                       2.50000000E-01  2.50000000E-01  5.00000000E-01
                       4.16666667E-01  2.50000000E-01  5.00000000E-01
                      -4.16666667E-01  2.50000000E-01  5.00000000E-01
                      -2.50000000E-01  2.50000000E-01  5.00000000E-01
                      -8.33333333E-02  2.50000000E-01  5.00000000E-01
                       8.33333333E-02  4.16666667E-01  5.00000000E-01
                       2.50000000E-01  4.16666667E-01  5.00000000E-01
                       4.16666667E-01  4.16666667E-01  5.00000000E-01
                      -4.16666667E-01  4.16666667E-01  5.00000000E-01
                      -2.50000000E-01  4.16666667E-01  5.00000000E-01
                      -8.33333333E-02  4.16666667E-01  5.00000000E-01
              kpt6     8.33333333E-02  8.33333333E-02  5.00000000E-01
                       2.50000000E-01  8.33333333E-02  5.00000000E-01
                       4.16666667E-01  8.33333333E-02  5.00000000E-01
                      -4.16666667E-01  8.33333333E-02  5.00000000E-01
                      -2.50000000E-01  8.33333333E-02  5.00000000E-01
                      -8.33333333E-02  8.33333333E-02  5.00000000E-01
                       8.33333333E-02  2.50000000E-01  5.00000000E-01
                       2.50000000E-01  2.50000000E-01  5.00000000E-01
                       4.16666667E-01  2.50000000E-01  5.00000000E-01
                      -4.16666667E-01  2.50000000E-01  5.00000000E-01
                      -2.50000000E-01  2.50000000E-01  5.00000000E-01
                      -8.33333333E-02  2.50000000E-01  5.00000000E-01
                       8.33333333E-02  4.16666667E-01  5.00000000E-01
                       2.50000000E-01  4.16666667E-01  5.00000000E-01
                       4.16666667E-01  4.16666667E-01  5.00000000E-01
                      -4.16666667E-01  4.16666667E-01  5.00000000E-01
                      -2.50000000E-01  4.16666667E-01  5.00000000E-01
                      -8.33333333E-02  4.16666667E-01  5.00000000E-01
           kptopt1          1
           kptopt2          1
           kptopt3          2
           kptopt4          2
           kptopt5          2
           kptopt6          2
         kptrlatt        6    0    0      0    6    0      0    0    1
          kptrlen      4.65745901E+01
P           mkmem1          1
P           mkmem2          1
P           mkmem3          3
P           mkmem4          3
P           mkmem5          3
P           mkmem6          3
P          mkqmem1          1
P          mkqmem2          1
P          mkqmem3          3
P          mkqmem4          3
P          mkqmem5          3
P          mkqmem6          3
P          mk1mem1          1
P          mk1mem2          1
P          mk1mem3          3
P          mk1mem4          3
P          mk1mem5          3
P          mk1mem6          3
            natom          16
            nband1        122
            nband2        250
            nband3        250
            nband4        250
            nband5        250
            nband6        250
           nbdbuf1          0
           nbdbuf2          2
           nbdbuf3          2
           nbdbuf4          2
           nbdbuf5          2
           nbdbuf6          2
           ndtset           6
            ngfft          36      36     240
             nkpt1          6
             nkpt2          6
             nkpt3         18
             nkpt4         18
             nkpt5         18
             nkpt6         18
            nline1          4
            nline2          4
            nline3          4
            nline4          0
            nline5          0
            nline6          0
             nqpt1          0
             nqpt2          0
             nqpt3          0
             nqpt4          1
             nqpt5          1
             nqpt6          1
            nstep1        400
            nstep2        200
            nstep3        200
            nstep4          1
            nstep5          1
            nstep6          1
             nsym          16
           ntypat           2
              occ1     2.000000  2.000000  2.000000  2.000000  2.000000  2.000000
                       2.000000  2.000000  2.000000  2.000000  2.000000  2.000000
                       2.000000  2.000000  2.000000  2.000000  2.000000  2.000000
                       2.000000  2.000000  2.000000  2.000000  2.000000  2.000000
                       2.000000  2.000000  2.000000  2.000000  2.000000  2.000000
                       2.000000  2.000000  2.000000  2.000000  2.000000  2.000000
                       2.000000  2.000000  2.000000  2.000000  2.000000  2.000000
                       2.000000  2.000000  2.000000  2.000000  2.000000  2.000000
                       2.000000  2.000000  2.000000  2.000000  2.000000  2.000000
                       2.000000  2.000000  2.000000  2.000000  2.000000  2.000000
                       2.000000  2.000000  2.000000  2.000000  2.000000  2.000000
                       2.000000  2.000000  2.000000  2.000000  2.000000  2.000000
                       2.000000  2.000000  2.000000  2.000000  2.000000  2.000000
                       2.000000  2.000000  2.000000  2.000000  2.000000  2.000000
                       2.000000  2.000000  2.000000  2.000000  2.000000  2.000000
                       2.000000  2.000000  2.000000  2.000000  2.000000  2.000000
                       2.000000  2.000000  2.000000  2.000000  2.000000  2.000000
                       2.000000  2.000000  2.000000  2.000000  2.000000  2.000000
                       2.000000  2.000000  2.000000  2.000000  2.000000  2.000000
                       2.000000  2.000000  2.000000  2.000000  2.000000  2.000000
                       0.000000  0.000000
              occ4     2.000000  2.000000  2.000000  2.000000  2.000000  2.000000
                       2.000000  2.000000  2.000000  2.000000  2.000000  2.000000
                       2.000000  2.000000  2.000000  2.000000  2.000000  2.000000
                       2.000000  2.000000  2.000000  2.000000  2.000000  2.000000
                       2.000000  2.000000  2.000000  2.000000  2.000000  2.000000
                       2.000000  2.000000  2.000000  2.000000  2.000000  2.000000
                       2.000000  2.000000  2.000000  2.000000  2.000000  2.000000
                       2.000000  2.000000  2.000000  2.000000  2.000000  2.000000
                       2.000000  2.000000  2.000000  2.000000  2.000000  2.000000
                       2.000000  2.000000  2.000000  2.000000  2.000000  2.000000
                       2.000000  2.000000  2.000000  2.000000  2.000000  2.000000
                       2.000000  2.000000  2.000000  2.000000  2.000000  2.000000
                       2.000000  2.000000  2.000000  2.000000  2.000000  2.000000
                       2.000000  2.000000  2.000000  2.000000  2.000000  2.000000
                       2.000000  2.000000  2.000000  2.000000  2.000000  2.000000
                       2.000000  2.000000  2.000000  2.000000  2.000000  2.000000
                       2.000000  2.000000  2.000000  2.000000  2.000000  2.000000
                       2.000000  2.000000  2.000000  2.000000  2.000000  2.000000
                       2.000000  2.000000  2.000000  2.000000  2.000000  2.000000
                       2.000000  2.000000  2.000000  2.000000  2.000000  2.000000
                       0.000000  0.000000  0.000000  0.000000  0.000000  0.000000
                       0.000000  0.000000  0.000000  0.000000  0.000000  0.000000
                       0.000000  0.000000  0.000000  0.000000  0.000000  0.000000
                       0.000000  0.000000  0.000000  0.000000  0.000000  0.000000
                       0.000000  0.000000  0.000000  0.000000  0.000000  0.000000
                       0.000000  0.000000  0.000000  0.000000  0.000000  0.000000
                       0.000000  0.000000  0.000000  0.000000  0.000000  0.000000
                       0.000000  0.000000  0.000000  0.000000  0.000000  0.000000
                       0.000000  0.000000  0.000000  0.000000  0.000000  0.000000
                       0.000000  0.000000  0.000000  0.000000  0.000000  0.000000
                       0.000000  0.000000  0.000000  0.000000  0.000000  0.000000
                       0.000000  0.000000  0.000000  0.000000  0.000000  0.000000
                       0.000000  0.000000  0.000000  0.000000  0.000000  0.000000
                       0.000000  0.000000  0.000000  0.000000  0.000000  0.000000
                       0.000000  0.000000  0.000000  0.000000  0.000000  0.000000
                       0.000000  0.000000  0.000000  0.000000  0.000000  0.000000
                       0.000000  0.000000  0.000000  0.000000  0.000000  0.000000
                       0.000000  0.000000  0.000000  0.000000  0.000000  0.000000
                       0.000000  0.000000  0.000000  0.000000  0.000000  0.000000
                       0.000000  0.000000  0.000000  0.000000  0.000000  0.000000
                       0.000000  0.000000  0.000000  0.000000  0.000000  0.000000
                       0.000000  0.000000  0.000000  0.000000
              occ5     2.000000  2.000000  2.000000  2.000000  2.000000  2.000000
                       2.000000  2.000000  2.000000  2.000000  2.000000  2.000000
                       2.000000  2.000000  2.000000  2.000000  2.000000  2.000000
                       2.000000  2.000000  2.000000  2.000000  2.000000  2.000000
                       2.000000  2.000000  2.000000  2.000000  2.000000  2.000000
                       2.000000  2.000000  2.000000  2.000000  2.000000  2.000000
                       2.000000  2.000000  2.000000  2.000000  2.000000  2.000000
                       2.000000  2.000000  2.000000  2.000000  2.000000  2.000000
                       2.000000  2.000000  2.000000  2.000000  2.000000  2.000000
                       2.000000  2.000000  2.000000  2.000000  2.000000  2.000000
                       2.000000  2.000000  2.000000  2.000000  2.000000  2.000000
                       2.000000  2.000000  2.000000  2.000000  2.000000  2.000000
                       2.000000  2.000000  2.000000  2.000000  2.000000  2.000000
                       2.000000  2.000000  2.000000  2.000000  2.000000  2.000000
                       2.000000  2.000000  2.000000  2.000000  2.000000  2.000000
                       2.000000  2.000000  2.000000  2.000000  2.000000  2.000000
                       2.000000  2.000000  2.000000  2.000000  2.000000  2.000000
                       2.000000  2.000000  2.000000  2.000000  2.000000  2.000000
                       2.000000  2.000000  2.000000  2.000000  2.000000  2.000000
                       2.000000  2.000000  2.000000  2.000000  2.000000  2.000000
                       0.000000  0.000000  0.000000  0.000000  0.000000  0.000000
                       0.000000  0.000000  0.000000  0.000000  0.000000  0.000000
                       0.000000  0.000000  0.000000  0.000000  0.000000  0.000000
                       0.000000  0.000000  0.000000  0.000000  0.000000  0.000000
                       0.000000  0.000000  0.000000  0.000000  0.000000  0.000000
                       0.000000  0.000000  0.000000  0.000000  0.000000  0.000000
                       0.000000  0.000000  0.000000  0.000000  0.000000  0.000000
                       0.000000  0.000000  0.000000  0.000000  0.000000  0.000000
                       0.000000  0.000000  0.000000  0.000000  0.000000  0.000000
                       0.000000  0.000000  0.000000  0.000000  0.000000  0.000000
                       0.000000  0.000000  0.000000  0.000000  0.000000  0.000000
                       0.000000  0.000000  0.000000  0.000000  0.000000  0.000000
                       0.000000  0.000000  0.000000  0.000000  0.000000  0.000000
                       0.000000  0.000000  0.000000  0.000000  0.000000  0.000000
                       0.000000  0.000000  0.000000  0.000000  0.000000  0.000000
                       0.000000  0.000000  0.000000  0.000000  0.000000  0.000000
                       0.000000  0.000000  0.000000  0.000000  0.000000  0.000000
                       0.000000  0.000000  0.000000  0.000000  0.000000  0.000000
                       0.000000  0.000000  0.000000  0.000000  0.000000  0.000000
                       0.000000  0.000000  0.000000  0.000000  0.000000  0.000000
                       0.000000  0.000000  0.000000  0.000000  0.000000  0.000000
                       0.000000  0.000000  0.000000  0.000000
              occ6     2.000000  2.000000  2.000000  2.000000  2.000000  2.000000
                       2.000000  2.000000  2.000000  2.000000  2.000000  2.000000
                       2.000000  2.000000  2.000000  2.000000  2.000000  2.000000
                       2.000000  2.000000  2.000000  2.000000  2.000000  2.000000
                       2.000000  2.000000  2.000000  2.000000  2.000000  2.000000
                       2.000000  2.000000  2.000000  2.000000  2.000000  2.000000
                       2.000000  2.000000  2.000000  2.000000  2.000000  2.000000
                       2.000000  2.000000  2.000000  2.000000  2.000000  2.000000
                       2.000000  2.000000  2.000000  2.000000  2.000000  2.000000
                       2.000000  2.000000  2.000000  2.000000  2.000000  2.000000
                       2.000000  2.000000  2.000000  2.000000  2.000000  2.000000
                       2.000000  2.000000  2.000000  2.000000  2.000000  2.000000
                       2.000000  2.000000  2.000000  2.000000  2.000000  2.000000
                       2.000000  2.000000  2.000000  2.000000  2.000000  2.000000
                       2.000000  2.000000  2.000000  2.000000  2.000000  2.000000
                       2.000000  2.000000  2.000000  2.000000  2.000000  2.000000
                       2.000000  2.000000  2.000000  2.000000  2.000000  2.000000
                       2.000000  2.000000  2.000000  2.000000  2.000000  2.000000
                       2.000000  2.000000  2.000000  2.000000  2.000000  2.000000
                       2.000000  2.000000  2.000000  2.000000  2.000000  2.000000
                       0.000000  0.000000  0.000000  0.000000  0.000000  0.000000
                       0.000000  0.000000  0.000000  0.000000  0.000000  0.000000
                       0.000000  0.000000  0.000000  0.000000  0.000000  0.000000
                       0.000000  0.000000  0.000000  0.000000  0.000000  0.000000
                       0.000000  0.000000  0.000000  0.000000  0.000000  0.000000
                       0.000000  0.000000  0.000000  0.000000  0.000000  0.000000
                       0.000000  0.000000  0.000000  0.000000  0.000000  0.000000
                       0.000000  0.000000  0.000000  0.000000  0.000000  0.000000
                       0.000000  0.000000  0.000000  0.000000  0.000000  0.000000
                       0.000000  0.000000  0.000000  0.000000  0.000000  0.000000
                       0.000000  0.000000  0.000000  0.000000  0.000000  0.000000
                       0.000000  0.000000  0.000000  0.000000  0.000000  0.000000
                       0.000000  0.000000  0.000000  0.000000  0.000000  0.000000
                       0.000000  0.000000  0.000000  0.000000  0.000000  0.000000
                       0.000000  0.000000  0.000000  0.000000  0.000000  0.000000
                       0.000000  0.000000  0.000000  0.000000  0.000000  0.000000
                       0.000000  0.000000  0.000000  0.000000  0.000000  0.000000
                       0.000000  0.000000  0.000000  0.000000  0.000000  0.000000
                       0.000000  0.000000  0.000000  0.000000  0.000000  0.000000
                       0.000000  0.000000  0.000000  0.000000  0.000000  0.000000
                       0.000000  0.000000  0.000000  0.000000  0.000000  0.000000
                       0.000000  0.000000  0.000000  0.000000
        optdriver1          0
        optdriver2          0
        optdriver3          0
        optdriver4          1
        optdriver5          1
        optdriver6          1
            prtwf1          1
            prtwf2          1
            prtwf3          1
            prtwf4          3
            prtwf5          3
            prtwf6          3
            rfdir1          0       0       0
            rfdir2          0       0       0
            rfdir3          0       0       0
            rfdir4          1       0       0
            rfdir5          0       1       0
            rfdir6          0       0       1
           rfelfd1          0
           rfelfd2          0
           rfelfd3          0
           rfelfd4          2
           rfelfd5          2
           rfelfd6          2
            rprim      1.0000000000E+00  0.0000000000E+00  0.0000000000E+00
                       0.0000000000E+00  1.0000000000E+00  0.0000000000E+00
                       0.0000000000E+00  0.0000000000E+00  6.9113460519E+00
           shiftk      5.00000000E-01  5.00000000E-01  5.00000000E-01
          spgroup         129
           symrel      1  0  0   0  1  0   0  0  1      -1  0  0   0 -1  0   0  0 -1
                      -1  0  0   0  1  0   0  0 -1       1  0  0   0 -1  0   0  0  1
                      -1  0  0   0 -1  0   0  0  1       1  0  0   0  1  0   0  0 -1
                       1  0  0   0 -1  0   0  0 -1      -1  0  0   0  1  0   0  0  1
                       0  1  0   1  0  0   0  0  1       0 -1  0  -1  0  0   0  0 -1
                       0 -1  0   1  0  0   0  0 -1       0  1  0  -1  0  0   0  0  1
                       0 -1  0  -1  0  0   0  0  1       0  1  0   1  0  0   0  0 -1
                       0  1  0  -1  0  0   0  0 -1       0 -1  0   1  0  0   0  0  1
            tnons      0.0000000  0.0000000  0.0000000     0.5000000  0.5000000 -0.0000000
                       0.5000000  0.5000000 -0.0000000     0.0000000  0.0000000  0.0000000
                      -0.0000000  0.0000000  0.0000000     0.5000000  0.5000000 -0.0000000
                       0.5000000  0.5000000 -0.0000000    -0.0000000  0.0000000  0.0000000
                       0.5000000  0.5000000  0.0000000     0.0000000 -0.0000000 -0.0000000
                       0.0000000 -0.0000000 -0.0000000     0.5000000  0.5000000  0.0000000
                       0.5000000  0.5000000  0.0000000     0.0000000  0.0000000 -0.0000000
                       0.0000000  0.0000000 -0.0000000     0.5000000  0.5000000  0.0000000
           tolwfr      1.00000000E-20
            typat      1  1  1  1  1  1  1  1  2  2  2  2  2  2  2  2
           vdw_xc           5
              wtk1       0.11111    0.22222    0.22222    0.11111    0.22222    0.11111
              wtk2       0.11111    0.22222    0.22222    0.11111    0.22222    0.11111
              wtk3       0.05556    0.05556    0.05556    0.05556    0.05556    0.05556
                         0.05556    0.05556    0.05556    0.05556    0.05556    0.05556
                         0.05556    0.05556    0.05556    0.05556    0.05556    0.05556
              wtk4       0.05556    0.05556    0.05556    0.05556    0.05556    0.05556
                         0.05556    0.05556    0.05556    0.05556    0.05556    0.05556
                         0.05556    0.05556    0.05556    0.05556    0.05556    0.05556
              wtk5       0.05556    0.05556    0.05556    0.05556    0.05556    0.05556
                         0.05556    0.05556    0.05556    0.05556    0.05556    0.05556
                         0.05556    0.05556    0.05556    0.05556    0.05556    0.05556
              wtk6       0.05556    0.05556    0.05556    0.05556    0.05556    0.05556
                         0.05556    0.05556    0.05556    0.05556    0.05556    0.05556
                         0.05556    0.05556    0.05556    0.05556    0.05556    0.05556
           xangst      2.0538509643E+00  0.0000000000E+00  4.6664799058E+00
                       0.0000000000E+00  2.0538509643E+00  7.4160839249E+00
                       2.0538509643E+00  0.0000000000E+00  1.0102208464E+01
                       0.0000000000E+00  2.0538509643E+00  1.2851812483E+01
                       2.0538509643E+00  0.0000000000E+00  1.5537937023E+01
                       0.0000000000E+00  2.0538509643E+00  1.8287541042E+01
                       2.0538509643E+00  0.0000000000E+00  2.0973665581E+01
                       0.0000000000E+00  2.0538509643E+00  2.3723269600E+01
                       0.0000000000E+00  2.0538509643E+00  4.6982196457E+00
                       2.0538509643E+00  0.0000000000E+00  7.3843441850E+00
                       0.0000000000E+00  2.0538509643E+00  1.0133948204E+01
                       2.0538509643E+00  0.0000000000E+00  1.2820072743E+01
                       0.0000000000E+00  2.0538509643E+00  1.5569676763E+01
                       2.0538509643E+00  0.0000000000E+00  1.8255801302E+01
                       0.0000000000E+00  2.0538509643E+00  2.1005405321E+01
                       2.0538509643E+00  0.0000000000E+00  2.3691529860E+01
            xcart      3.8812158402E+00  0.0000000000E+00  8.8183690266E+00
                       0.0000000000E+00  3.8812158402E+00  1.4014367597E+01
                       3.8812158402E+00  0.0000000000E+00  1.9090407335E+01
                       0.0000000000E+00  3.8812158402E+00  2.4286405905E+01
                       3.8812158402E+00  0.0000000000E+00  2.9362445643E+01
                       0.0000000000E+00  3.8812158402E+00  3.4558444213E+01
                       3.8812158402E+00  0.0000000000E+00  3.9634483951E+01
                       0.0000000000E+00  3.8812158402E+00  4.4830482521E+01
                       0.0000000000E+00  3.8812158402E+00  8.8783484426E+00
                       3.8812158402E+00  0.0000000000E+00  1.3954388181E+01
                       0.0000000000E+00  3.8812158402E+00  1.9150386751E+01
                       3.8812158402E+00  0.0000000000E+00  2.4226426489E+01
                       0.0000000000E+00  3.8812158402E+00  2.9422425059E+01
                       3.8812158402E+00  0.0000000000E+00  3.4498464797E+01
                       0.0000000000E+00  3.8812158402E+00  3.9694463367E+01
                       3.8812158402E+00  0.0000000000E+00  4.4770503105E+01
             xred      5.0000000000E-01  0.0000000000E+00  1.6437200000E-01
                       0.0000000000E+00  5.0000000000E-01  2.6122400000E-01
                       5.0000000000E-01  0.0000000000E+00  3.5584000000E-01
                       0.0000000000E+00  5.0000000000E-01  4.5269200000E-01
                       5.0000000000E-01  0.0000000000E+00  5.4730800000E-01
                       0.0000000000E+00  5.0000000000E-01  6.4416000000E-01
                       5.0000000000E-01  0.0000000000E+00  7.3877600000E-01
                       0.0000000000E+00  5.0000000000E-01  8.3562800000E-01
                       0.0000000000E+00  5.0000000000E-01  1.6549000000E-01
                       5.0000000000E-01  0.0000000000E+00  2.6010600000E-01
                       0.0000000000E+00  5.0000000000E-01  3.5695800000E-01
                       5.0000000000E-01  0.0000000000E+00  4.5157400000E-01
                       0.0000000000E+00  5.0000000000E-01  5.4842600000E-01
                       5.0000000000E-01  0.0000000000E+00  6.4304200000E-01
                       0.0000000000E+00  5.0000000000E-01  7.3989400000E-01
                       5.0000000000E-01  0.0000000000E+00  8.3451000000E-01
            znucl       50.00000   34.00000

================================================================================

 chkinp: Checking input parameters for consistency, jdtset=   1.

 chkinp: Checking input parameters for consistency, jdtset=   2.

 chkinp: Checking input parameters for consistency, jdtset=   3.

 chkinp: Checking input parameters for consistency, jdtset=   4.

 chkinp: Checking input parameters for consistency, jdtset=   5.

 chkinp: Checking input parameters for consistency, jdtset=   6.

================================================================================
== DATASET  1 ==================================================================
-   mpi_nproc: 6, omp_nthreads: -1 (-1 if OMP is not activated)


--- !DatasetInfo
iteration_state: {dtset: 1, }
dimensions: {natom: 16, nkpt: 6, mband: 122, nsppol: 1, nspinor: 1, nspden: 1, mpw: 16512, }
cutoff_energies: {ecut:  22.5, pawecutdg:  -1.0, }
electrons: {nelect:   2.40000000E+02, charge:   0.00000000E+00, occopt:   1.00000000E+00, tsmear:   1.00000000E-02, }
meta: {optdriver: 0, ionmov: 0, optcell: 0, iscf: 7, paral_kgb: 0, }
...

 Exchange-correlation functional for the present dataset will be:
  GGA: Perdew-Burke-Ernzerhof functional - ixc=11
 Citation for XC functional:
  J.P.Perdew, K.Burke, M.Ernzerhof, PRL 77, 3865 (1996)

 Real(R)+Recip(G) space primitive vectors, cartesian coordinates (Bohr,Bohr^-1):
 R(1)=  7.7624317  0.0000000  0.0000000  G(1)=  0.1288256  0.0000000  0.0000000
 R(2)=  0.0000000  7.7624317  0.0000000  G(2)=  0.0000000  0.1288256  0.0000000
 R(3)=  0.0000000  0.0000000 53.6488515  G(3)=  0.0000000  0.0000000  0.0186397
 Unit cell volume ucvol=  3.2326301E+03 bohr^3
 Angles (23,13,12)=  9.00000000E+01  9.00000000E+01  9.00000000E+01 degrees

 getcut: wavevector=  0.0000  0.0000  0.0000  ngfft=  36  36 240
         ecut(hartree)=     22.500   => boxcut(ratio)=   2.09505

--- Pseudopotential description ------------------------------------------------
- pspini: atom type   1  psp file is ../../../Psps_for_tests/ATOMICDATA_NC/Sn.psp8
- pspatm: opening atomic psp file    ../../../Psps_for_tests/ATOMICDATA_NC/Sn.psp8
- Sn    ONCVPSP  r_core=  2.27  2.62  1.86
- 50.00000  14.00000    150810                znucl, zion, pspdat
    8   11    2    4       600   0.00000      pspcod,pspxc,lmax,lloc,mmax,r2well
    5.99000000000000    6.50000000000000    0.00000000000000   rchrg,fchrg,qchrg
     nproj     2     2     2
     extension_switch     1
  pspatm : epsatm=   32.65190642
         --- l  ekb(1:nproj) -->
             0    5.462393    0.682281
             1    4.443814    0.825686
             2   -5.382195   -1.704077
 pspatm: atomic psp has been read  and splines computed

- pspini: atom type   2  psp file is ../../../Psps_for_tests/ATOMICDATA_NC/Se.psp8
- pspatm: opening atomic psp file    ../../../Psps_for_tests/ATOMICDATA_NC/Se.psp8
- Se    ONCVPSP  r_core=  1.82  1.50  1.91
- 34.00000  16.00000    150729                znucl, zion, pspdat
    8   11    2    4       600   0.00000      pspcod,pspxc,lmax,lloc,mmax,r2well
    5.99000000000000    5.00000000000000    0.00000000000000   rchrg,fchrg,qchrg
     nproj     2     2     2
     extension_switch     1
  pspatm : epsatm=   29.53325930
         --- l  ekb(1:nproj) -->
             0    8.612261    0.939919
             1    6.984962    1.281898
             2   -9.322521   -3.856218
 pspatm: atomic psp has been read  and splines computed

   1.19395518E+05                                ecore*ucvol(ha*bohr**3)
--------------------------------------------------------------------------------

_setup2: Arith. and geom. avg. npw (full set) are   16479.778   16479.768

================================================================================

--- !BeginCycle
iteration_state: {dtset: 1, }
solver: {iscf: 7, nstep: 400, nline: 4, wfoptalg: 0, }
tolerances: {tolwfr: 1.00E-20, }
...

     iter   Etot(hartree)      deltaE(h)  residm     vres2
 ETOT  1  -1559.2192245191    -1.559E+03 8.503E-01 3.291E+05
 ETOT  2  -1577.7528068565    -1.853E+01 3.299E-02 2.053E+06
 ETOT  3  -1590.8616419857    -1.311E+01 3.994E-02 5.710E+03
 ETOT  4  -1591.3762464486    -5.146E-01 6.460E-03 4.764E+03
 ETOT  5  -1591.4807532748    -1.045E-01 1.626E-03 2.158E+03
 ETOT  6  -1591.4901239676    -9.371E-03 2.113E-03 6.116E+03
 ETOT  7  -1591.4979778062    -7.854E-03 4.302E-04 5.415E+03
 ETOT  8  -1591.5061875688    -8.210E-03 3.695E-04 3.965E+03
 ETOT  9  -1591.5170737439    -1.089E-02 3.710E-04 2.129E+03
 ETOT 10  -1591.5202599311    -3.186E-03 2.693E-04 1.636E+03
 ETOT 11  -1591.5276505562    -7.391E-03 8.225E-04 7.044E+01
 ETOT 12  -1591.5279020061    -2.514E-04 2.602E-04 1.155E+02
 ETOT 13  -1591.5281712551    -2.692E-04 3.532E-04 4.996E+01
 ETOT 14  -1591.5278668583     3.044E-04 2.234E-04 1.064E+02
 ETOT 15  -1591.5283315726    -4.647E-04 1.025E-04 5.855E+00
 ETOT 16  -1591.5283122979     1.927E-05 1.556E-04 7.357E+00
 ETOT 17  -1591.5283427500    -3.045E-05 2.785E-05 7.967E-01
 ETOT 18  -1591.5283339322     8.818E-06 9.439E-05 4.897E-01
 ETOT 19  -1591.5283450550    -1.112E-05 8.802E-06 4.340E-01
 ETOT 20  -1591.5283474312    -2.376E-06 5.015E-05 2.042E-01
 ETOT 21  -1591.5283483478    -9.166E-07 4.263E-06 2.150E-02
 ETOT 22  -1591.5283484288    -8.097E-08 2.430E-05 1.710E-03
 ETOT 23  -1591.5283484614    -3.260E-08 2.395E-06 4.606E-04
 ETOT 24  -1591.5283484616    -2.490E-10 1.157E-05 3.444E-04
 ETOT 25  -1591.5283484633    -1.640E-09 1.341E-06 2.258E-05
 ETOT 26  -1591.5283484639    -6.607E-10 5.471E-06 6.348E-07
 ETOT 27  -1591.5283484639     2.956E-11 7.518E-07 1.927E-06
 ETOT 28  -1591.5283484637     2.342E-10 2.578E-06 2.365E-07
 ETOT 29  -1591.5283484638    -9.868E-11 4.219E-07 8.684E-08
 ETOT 30  -1591.5283484636     1.805E-10 1.213E-06 4.388E-10
 ETOT 31  -1591.5283484635     4.911E-11 2.370E-07 5.146E-11
 ETOT 32  -1591.5283484639    -3.365E-10 5.702E-07 1.115E-10
 ETOT 33  -1591.5283484637     1.578E-10 1.333E-07 9.477E-12
 ETOT 34  -1591.5283484637    -3.001E-11 2.681E-07 2.156E-11
 ETOT 35  -1591.5283484634     3.247E-10 7.501E-08 4.346E-12
 ETOT 36  -1591.5283484639    -4.807E-10 1.384E-07 1.053E-13
 ETOT 37  -1591.5283484637     2.190E-10 4.224E-08 6.007E-14
 ETOT 38  -1591.5283484635     2.240E-10 7.783E-08 9.272E-15
 ETOT 39  -1591.5283484638    -3.536E-10 2.380E-08 8.501E-15
 ETOT 40  -1591.5283484636     2.449E-10 4.379E-08 2.019E-15
 ETOT 41  -1591.5283484637    -9.436E-11 1.342E-08 5.376E-16
 ETOT 42  -1591.5283484636     1.660E-11 2.465E-08 1.200E-16
 ETOT 43  -1591.5283484636     1.864E-11 7.566E-09 3.748E-17
 ETOT 44  -1591.5283484636     2.296E-11 1.388E-08 2.214E-17
 ETOT 45  -1591.5283484636     2.046E-12 4.269E-09 1.978E-17
 ETOT 46  -1591.5283484636    -7.958E-12 7.818E-09 1.877E-17
 ETOT 47  -1591.5283484636     5.684E-12 2.409E-09 1.599E-17
 ETOT 48  -1591.5283484636     1.523E-11 4.405E-09 1.640E-17
 ETOT 49  -1591.5283484636    -1.114E-11 1.360E-09 1.449E-17
 ETOT 50  -1591.5283484636    -1.819E-12 2.483E-09 1.289E-17
 ETOT 51  -1591.5283484636     1.728E-11 7.679E-10 1.220E-17
 ETOT 52  -1591.5283484636     5.002E-12 1.400E-09 1.246E-17
 ETOT 53  -1591.5283484636     3.865E-12 4.337E-10 1.201E-17
 ETOT 54  -1591.5283484636     1.137E-12 7.893E-10 1.079E-17
 ETOT 55  -1591.5283484636     2.274E-12 2.450E-10 1.061E-17
 ETOT 56  -1591.5283484636    -2.274E-12 4.452E-10 9.820E-18
 ETOT 57  -1591.5283484636     6.821E-13 1.384E-10 9.099E-18
 ETOT 58  -1591.5283484636     2.274E-13 2.512E-10 8.706E-18
 ETOT 59  -1591.5283484636    -3.183E-12 7.824E-11 8.902E-18
 ETOT 60  -1591.5283484636     9.095E-13 1.417E-10 8.072E-18
 ETOT 61  -1591.5283484636     1.819E-12 4.423E-11 7.638E-18
 ETOT 62  -1591.5283484636     1.364E-12 7.999E-11 7.150E-18
 ETOT 63  -1591.5283484636    -4.093E-12 2.500E-11 7.699E-18
 ETOT 64  -1591.5283484636     4.547E-12 4.515E-11 6.835E-18
 ETOT 65  -1591.5283484636    -2.046E-12 1.414E-11 6.323E-18
 ETOT 66  -1591.5283484636    -7.958E-12 2.549E-11 6.117E-18
 ETOT 67  -1591.5283484636    -3.638E-12 7.995E-12 5.485E-18
 ETOT 68  -1591.5283484636    -7.731E-12 1.440E-11 5.362E-18
 ETOT 69  -1591.5283484636    -4.547E-13 4.522E-12 5.409E-18
 ETOT 70  -1591.5283484636     4.775E-12 8.130E-12 5.099E-18
 ETOT 71  -1591.5283484636     4.093E-12 2.558E-12 5.109E-18
 ETOT 72  -1591.5283484636     6.821E-13 4.592E-12 5.371E-18
 ETOT 73  -1591.5283484636    -4.320E-12 1.447E-12 4.913E-18
 ETOT 74  -1591.5283484636    -4.775E-12 2.594E-12 4.648E-18
 ETOT 75  -1591.5283484636    -1.592E-12 8.187E-13 4.240E-18
 ETOT 76  -1591.5283484636     4.547E-12 1.466E-12 5.077E-18
 ETOT 77  -1591.5283484636    -3.183E-12 4.633E-13 4.210E-18
 ETOT 78  -1591.5283484636     2.501E-12 8.284E-13 4.309E-18
 ETOT 79  -1591.5283484636     4.547E-13 2.622E-13 3.442E-18
 ETOT 80  -1591.5283484636    -1.364E-12 4.682E-13 3.540E-18
 ETOT 81  -1591.5283484636    -2.728E-12 1.484E-13 2.873E-18
 ETOT 82  -1591.5283484636     1.364E-12 2.646E-13 3.364E-18
 ETOT 83  -1591.5283484636     2.046E-12 8.400E-14 3.305E-18
 ETOT 84  -1591.5283484636    -1.137E-12 1.496E-13 3.404E-18
 ETOT 85  -1591.5283484636     9.095E-13 4.755E-14 3.270E-18
 ETOT 86  -1591.5283484636     0.000E+00 8.459E-14 3.530E-18
 ETOT 87  -1591.5283484636    -4.547E-13 2.692E-14 2.834E-18
 ETOT 88  -1591.5283484636    -2.956E-12 4.783E-14 3.298E-18
 ETOT 89  -1591.5283484636     6.821E-13 1.524E-14 2.715E-18
 ETOT 90  -1591.5283484636    -1.819E-12 2.705E-14 2.722E-18
 ETOT 91  -1591.5283484636     1.819E-12 8.632E-15 2.430E-18
 ETOT 92  -1591.5283484636     1.592E-12 1.530E-14 2.541E-18
 ETOT 93  -1591.5283484636    -3.411E-12 4.889E-15 2.653E-18
 ETOT 94  -1591.5283484636    -4.547E-13 8.654E-15 2.262E-18
 ETOT 95  -1591.5283484636    -2.274E-12 2.769E-15 2.677E-18
 ETOT 96  -1591.5283484636     9.095E-13 4.896E-15 2.707E-18
 ETOT 97  -1591.5283484636     0.000E+00 1.568E-15 2.761E-18
 ETOT 98  -1591.5283484636    -1.819E-12 2.770E-15 2.482E-18
 ETOT 99  -1591.5283484636     0.000E+00 8.883E-16 2.306E-18
 ETOT  100  -1591.5283484636    -4.547E-12 1.567E-15 2.086E-18
 ETOT  101  -1591.5283484636    -4.547E-13 5.032E-16 2.339E-18
 ETOT  102  -1591.5283484636     1.364E-12 8.869E-16 2.569E-18
 ETOT  103  -1591.5283484636    -2.956E-12 2.851E-16 1.998E-18
 ETOT  104  -1591.5283484636    -6.821E-13 5.019E-16 1.894E-18
 ETOT  105  -1591.5283484636     6.821E-13 1.615E-16 2.701E-18
 ETOT  106  -1591.5283484636     2.274E-13 2.841E-16 2.886E-18
 ETOT  107  -1591.5283484636     1.137E-12 9.152E-17 2.657E-18
 ETOT  108  -1591.5283484636     2.274E-13 1.608E-16 1.893E-18
 ETOT  109  -1591.5283484636    -4.547E-13 5.186E-17 2.519E-18
 ETOT  110  -1591.5283484636    -9.095E-13 9.103E-17 2.808E-18
 ETOT  111  -1591.5283484636     1.819E-12 2.939E-17 3.714E-18
 ETOT  112  -1591.5283484636    -2.956E-12 5.154E-17 1.883E-18
 ETOT  113  -1591.5283484636     6.821E-13 4.166E-17 2.201E-18
 ETOT  114  -1591.5283484636    -1.364E-12 5.436E-17 2.066E-18
 ETOT  115  -1591.5283484636     9.095E-13 6.298E-18 1.926E-18
 ETOT  116  -1591.5283484636    -6.821E-13 2.157E-17 2.605E-18
 ETOT  117  -1591.5283484636     0.000E+00 2.478E-18 2.709E-18
 ETOT  118  -1591.5283484636    -1.819E-12 8.568E-18 2.526E-18
 ETOT  119  -1591.5283484636     2.274E-13 9.758E-19 1.758E-18
 ETOT  120  -1591.5283484636     2.274E-13 3.406E-18 2.092E-18
 ETOT  121  -1591.5283484636     1.137E-12 3.845E-19 2.322E-18
 ETOT  122  -1591.5283484636    -2.956E-12 1.355E-18 2.342E-18
 ETOT  123  -1591.5283484636     1.592E-12 1.515E-19 1.637E-18
 ETOT  124  -1591.5283484636     2.274E-12 5.389E-19 1.710E-18
 ETOT  125  -1591.5283484636    -2.956E-12 5.975E-20 1.870E-18
 ETOT  126  -1591.5283484636    -6.821E-13 2.144E-19 3.045E-18
 ETOT  127  -1591.5283484636    -1.819E-12 2.357E-20 1.579E-18
 ETOT  128  -1591.5283484636     9.095E-13 8.533E-20 1.930E-18
 ETOT  129  -1591.5283484636    -4.547E-13 9.997E-21 1.855E-18

 At SCF step  129   max residual=  1.00E-20 < tolwfr=  1.00E-20 =>converged.

 Cartesian components of stress tensor (hartree/bohr^3)
  sigma(1 1)=  1.41497830E-02  sigma(3 2)=  0.00000000E+00
  sigma(2 2)=  1.41497830E-02  sigma(3 1)=  0.00000000E+00
  sigma(3 3)=  1.38527838E-02  sigma(2 1)=  0.00000000E+00


--- !ResultsGS
iteration_state: {dtset: 1, }
comment   : Summary of ground state results
lattice_vectors:
- [  7.7624317,   0.0000000,   0.0000000, ]
- [  0.0000000,   7.7624317,   0.0000000, ]
- [  0.0000000,   0.0000000,  53.6488515, ]
lattice_lengths: [   7.76243,    7.76243,   53.64885, ]
lattice_angles: [ 90.000,  90.000,  90.000, ] # degrees, (23, 13, 12)
lattice_volume:   3.2326301E+03
convergence: {deltae: -4.547E-13, res2:  1.855E-18, residm:  9.997E-21, diffor: null, }
etotal    :  -1.59152835E+03
entropy   :   0.00000000E+00
fermie    :   1.59570668E-01
cartesian_stress_tensor: # hartree/bohr^3
- [  1.41497830E-02,   0.00000000E+00,   0.00000000E+00, ]
- [  0.00000000E+00,   1.41497830E-02,   0.00000000E+00, ]
- [  0.00000000E+00,   0.00000000E+00,   1.38527838E-02, ]
pressure_GPa:  -4.1339E+02
xred      :
- [  5.0000E-01,   0.0000E+00,   1.6437E-01, Sn]
- [  0.0000E+00,   5.0000E-01,   2.6122E-01, Sn]
- [  5.0000E-01,   0.0000E+00,   3.5584E-01, Sn]
- [  0.0000E+00,   5.0000E-01,   4.5269E-01, Sn]
- [  5.0000E-01,   0.0000E+00,   5.4731E-01, Sn]
- [  0.0000E+00,   5.0000E-01,   6.4416E-01, Sn]
- [  5.0000E-01,   0.0000E+00,   7.3878E-01, Sn]
- [  0.0000E+00,   5.0000E-01,   8.3563E-01, Sn]
- [  0.0000E+00,   5.0000E-01,   1.6549E-01, Se]
- [  5.0000E-01,   0.0000E+00,   2.6011E-01, Se]
- [  0.0000E+00,   5.0000E-01,   3.5696E-01, Se]
- [  5.0000E-01,   0.0000E+00,   4.5157E-01, Se]
- [  0.0000E+00,   5.0000E-01,   5.4843E-01, Se]
- [  5.0000E-01,   0.0000E+00,   6.4304E-01, Se]
- [  0.0000E+00,   5.0000E-01,   7.3989E-01, Se]
- [  5.0000E-01,   0.0000E+00,   8.3451E-01, Se]
cartesian_forces: # hartree/bohr
- [ -1.02895806E-30,  -1.38464727E-30,  -1.31229047E-02, ]
- [  1.90547789E-31,   2.41360533E-31,  -1.39457599E-02, ]
- [  3.93798765E-31,   2.41360533E-31,   3.92586792E-03, ]
- [  1.90547789E-31,   2.41360533E-31,  -3.10191417E-03, ]
- [ -6.22456112E-31,   2.41360533E-31,   3.10191417E-03, ]
- [  1.90547789E-31,   2.41360533E-31,  -3.92586792E-03, ]
- [  5.97049740E-31,   2.41360533E-31,   1.39457599E-02, ]
- [ -1.43546001E-30,  -5.71643368E-31,   1.31229047E-02, ]
- [  1.90547789E-31,  -5.71643368E-31,  -1.45407960E-02, ]
- [  1.41005364E-30,   1.86736834E-30,  -9.94484908E-03, ]
- [ -1.43546001E-30,  -1.38464727E-30,   2.23309739E-03, ]
- [  1.00355169E-30,  -5.71643368E-31,  -4.08342776E-04, ]
- [  1.90547789E-31,   6.47862484E-31,   4.08342776E-04, ]
- [  1.00355169E-30,   1.05436443E-30,  -2.23309739E-03, ]
- [ -1.43546001E-30,  -7.74894344E-31,   9.94484908E-03, ]
- [  5.97049740E-31,   2.41360533E-31,   1.45407960E-02, ]
force_length_stats: {min:   4.08342776E-04, max:   1.45407960E-02, mean:   7.65294148E-03, }
...

 Integrated electronic density in atomic spheres:
 ------------------------------------------------
 Atom  Sphere_radius  Integrated_density
    1        2.00000         10.54232404
    2        2.00000         10.58166088
    3        2.00000         10.58244020
    4        2.00000         10.58204262
    5        2.00000         10.58204262
    6        2.00000         10.58244020
    7        2.00000         10.58166088
    8        2.00000         10.54232404
    9        2.00000         13.30540562
   10        2.00000         13.30855689
   11        2.00000         13.33448599
   12        2.00000         13.32742401
   13        2.00000         13.32742401
   14        2.00000         13.33448599
   15        2.00000         13.30855689
   16        2.00000         13.30540562
================================================================================

 ----iterations are completed or convergence reached----

 Mean square residual over all n,k,spin=   40.053E-22; max=  99.971E-22
 reduced coordinates (array xred) for   16 atoms
       0.500000000000      0.000000000000      0.164372000000
       0.000000000000      0.500000000000      0.261224000000
       0.500000000000      0.000000000000      0.355840000000
       0.000000000000      0.500000000000      0.452692000000
       0.500000000000      0.000000000000      0.547308000000
       0.000000000000      0.500000000000      0.644160000000
       0.500000000000      0.000000000000      0.738776000000
       0.000000000000      0.500000000000      0.835628000000
       0.000000000000      0.500000000000      0.165490000000
       0.500000000000      0.000000000000      0.260106000000
       0.000000000000      0.500000000000      0.356958000000
       0.500000000000      0.000000000000      0.451574000000
       0.000000000000      0.500000000000      0.548426000000
       0.500000000000      0.000000000000      0.643042000000
       0.000000000000      0.500000000000      0.739894000000
       0.500000000000      0.000000000000      0.834510000000
 rms dE/dt=  2.9123E-01; max dE/dt=  7.8010E-01; dE/dt below (all hartree)
    1       0.000000000000      0.000000000000      0.704028765739
    2       0.000000000000      0.000000000000      0.748174001912
    3      -0.000000000000      0.000000000000     -0.210618305034
    4       0.000000000000      0.000000000000      0.166414132672
    5       0.000000000000      0.000000000000     -0.166414132672
    6       0.000000000000      0.000000000000      0.210618305034
    7      -0.000000000000      0.000000000000     -0.748174001912
    8       0.000000000000      0.000000000000     -0.704028765739
    9       0.000000000000      0.000000000000      0.780097004465
   10      -0.000000000000     -0.000000000000      0.533529732070
   11       0.000000000000      0.000000000000     -0.119803110116
   12      -0.000000000000      0.000000000000      0.021907120951
   13       0.000000000000     -0.000000000000     -0.021907120951
   14      -0.000000000000     -0.000000000000      0.119803110116
   15       0.000000000000      0.000000000000     -0.533529732070
   16      -0.000000000000      0.000000000000     -0.780097004465

 cartesian coordinates (angstrom) at end:
    1      2.05385096425820     0.00000000000000     4.66647990579236
    2      0.00000000000000     2.05385096425820     7.41608392494284
    3      2.05385096425820     0.00000000000000    10.10220846419800
    4      0.00000000000000     2.05385096425820    12.85181248334848
    5      2.05385096425820     0.00000000000000    15.53793702260364
    6      0.00000000000000     2.05385096425820    18.28754104175411
    7      2.05385096425820     0.00000000000000    20.97366558100928
    8      0.00000000000000     2.05385096425820    23.72326960015976
    9      0.00000000000000     2.05385096425820     4.69821964574002
   10      2.05385096425820     0.00000000000000     7.38434418499518
   11      0.00000000000000     2.05385096425820    10.13394820414566
   12      2.05385096425820     0.00000000000000    12.82007274340082
   13      0.00000000000000     2.05385096425820    15.56967676255129
   14      2.05385096425820     0.00000000000000    18.25580130180646
   15      0.00000000000000     2.05385096425820    21.00540532095694
   16      2.05385096425820     0.00000000000000    23.69152986021210

 cartesian forces (hartree/bohr) at end:
    1     -0.00000000000000    -0.00000000000000    -0.01312290469285
    2      0.00000000000000     0.00000000000000    -0.01394575988733
    3      0.00000000000000     0.00000000000000     0.00392586791624
    4      0.00000000000000     0.00000000000000    -0.00310191416725
    5     -0.00000000000000     0.00000000000000     0.00310191416725
    6      0.00000000000000     0.00000000000000    -0.00392586791624
    7      0.00000000000000     0.00000000000000     0.01394575988733
    8     -0.00000000000000    -0.00000000000000     0.01312290469285
    9      0.00000000000000    -0.00000000000000    -0.01454079597164
   10      0.00000000000000     0.00000000000000    -0.00994484908215
   11     -0.00000000000000    -0.00000000000000     0.00223309738532
   12      0.00000000000000    -0.00000000000000    -0.00040834277564
   13      0.00000000000000     0.00000000000000     0.00040834277564
   14      0.00000000000000     0.00000000000000    -0.00223309738532
   15     -0.00000000000000    -0.00000000000000     0.00994484908215
   16      0.00000000000000     0.00000000000000     0.01454079597164
 frms,max,avg= 5.4283876E-03 1.4540796E-02   0.000E+00  0.000E+00  0.000E+00 h/b

 cartesian forces (eV/Angstrom) at end:
    1     -0.00000000000000    -0.00000000000000    -0.67480683438143
    2      0.00000000000000     0.00000000000000    -0.71711974618994
    3      0.00000000000000     0.00000000000000     0.20187622807341
    4      0.00000000000000     0.00000000000000    -0.15950682632530
    5     -0.00000000000000     0.00000000000000     0.15950682632530
    6      0.00000000000000     0.00000000000000    -0.20187622807341
    7      0.00000000000000     0.00000000000000     0.71711974618994
    8     -0.00000000000000    -0.00000000000000     0.67480683438143
    9      0.00000000000000    -0.00000000000000    -0.74771772931901
   10      0.00000000000000     0.00000000000000    -0.51138465793936
   11     -0.00000000000000    -0.00000000000000     0.11483047486220
   12      0.00000000000000    -0.00000000000000    -0.02099782801299
   13      0.00000000000000     0.00000000000000     0.02099782801299
   14      0.00000000000000     0.00000000000000    -0.11483047486220
   15     -0.00000000000000    -0.00000000000000     0.51138465793936
   16      0.00000000000000     0.00000000000000     0.74771772931901
 frms,max,avg= 2.7913889E-01 7.4771773E-01   0.000E+00  0.000E+00  0.000E+00 e/A
 length scales=  7.762431680422  7.762431680422  7.762431680422 bohr
              =  4.107701928516  4.107701928516  4.107701928516 angstroms
 prteigrs : about to open file Cs2TiI6o_DS1_EIG
 Fermi (or HOMO) energy (hartree) =   0.15957   Average Vxc (hartree)=  -0.32557
 Eigenvalues (hartree) for nkpt=   6  k points:
 kpt#   1, nband=122, wtk=  0.11111, kpt=  0.0833  0.0833  0.5000 (reduced coord)
  -1.66111   -1.66052   -1.65747   -1.65730   -1.65665   -1.65643   -1.65635   -1.65572
  -1.65512   -1.65507   -1.65443   -1.65408   -1.65382   -1.65339   -1.65328   -1.65232
  -1.65230   -1.65222   -1.65152   -1.65123   -1.65077   -1.65062   -1.65056   -1.64966
  -1.64920   -1.64892   -1.64683   -1.64534   -1.64329   -1.64273   -1.63067   -1.63057
  -1.62986   -1.62969   -1.62891   -1.62600   -1.62599   -1.62565   -1.62510   -1.62509
  -0.65314   -0.65287   -0.65182   -0.65165   -0.65149   -0.65138   -0.65124   -0.65061
  -0.65057   -0.65050   -0.65045   -0.64998   -0.64997   -0.64991   -0.64983   -0.64963
  -0.64897   -0.64864   -0.64816   -0.64813   -0.64435   -0.64431   -0.64377   -0.64367
  -0.64349   -0.64342   -0.64271   -0.64233   -0.64222   -0.64210   -0.64201   -0.64200
  -0.64152   -0.64151   -0.64134   -0.64132   -0.64096   -0.64087   -0.64087   -0.64075
  -0.40699   -0.39988   -0.38959   -0.37755   -0.36296   -0.34925   -0.33570   -0.33440
  -0.12932   -0.12842   -0.11499   -0.11109   -0.09357   -0.08661   -0.06503   -0.05843
  -0.03911   -0.02991   -0.02443   -0.01577   -0.00349    0.00197    0.01038    0.01403
   0.02163    0.02609    0.03195    0.03927    0.04129    0.04384    0.04895    0.05365
   0.05669    0.05866    0.07663    0.08692    0.09047    0.09947    0.13045    0.13420
   0.21773    0.22019
 prteigrs : prtvol=0 or 1, do not print more k-points.


--- !EnergyTerms
iteration_state     : {dtset: 1, }
comment             : Components of total free energy in Hartree
kinetic             :  9.72798980180128E+02
hartree             :  1.90056995192459E+03
xc                  : -3.67008307320139E+02
Ewald energy        :  5.94046025042154E+02
psp_core            :  3.69344820919736E+01
local_psp           : -4.15513079836976E+03
non_local_psp       : -5.73512698622980E+02
VdWaals_dft_d       : -2.25983389588033E-01
total_energy        : -1.59152834846362E+03
total_energy_eV     : -4.33076888141153E+04
band_energy         : -1.89124885178267E+02
...


 Cartesian components of stress tensor (hartree/bohr^3)
  sigma(1 1)=  1.41497830E-02  sigma(3 2)=  0.00000000E+00
  sigma(2 2)=  1.41497830E-02  sigma(3 1)=  0.00000000E+00
  sigma(3 3)=  1.38527838E-02  sigma(2 1)=  0.00000000E+00

-Cartesian components of stress tensor (GPa)         [Pressure= -4.1339E+02 GPa]
- sigma(1 1)=  4.16300919E+02  sigma(3 2)=  0.00000000E+00
- sigma(2 2)=  4.16300919E+02  sigma(3 1)=  0.00000000E+00
- sigma(3 3)=  4.07562903E+02  sigma(2 1)=  0.00000000E+00

================================================================================
== DATASET  2 ==================================================================
-   mpi_nproc: 6, omp_nthreads: -1 (-1 if OMP is not activated)


--- !DatasetInfo
iteration_state: {dtset: 2, }
dimensions: {natom: 16, nkpt: 6, mband: 250, nsppol: 1, nspinor: 1, nspden: 1, mpw: 16512, }
cutoff_energies: {ecut:  22.5, pawecutdg:  -1.0, }
electrons: {nelect:   2.40000000E+02, charge:   0.00000000E+00, occopt:   1.00000000E+00, tsmear:   1.00000000E-02, }
meta: {optdriver: 0, ionmov: 0, optcell: 0, iscf: -2, paral_kgb: 0, }
...

 mkfilename : getwfk/=0, take file _WFK from output of DATASET   1.

 mkfilename : getden/=0, take file _DEN from output of DATASET   1.

 Exchange-correlation functional for the present dataset will be:
  GGA: Perdew-Burke-Ernzerhof functional - ixc=11
 Citation for XC functional:
  J.P.Perdew, K.Burke, M.Ernzerhof, PRL 77, 3865 (1996)

 Real(R)+Recip(G) space primitive vectors, cartesian coordinates (Bohr,Bohr^-1):
 R(1)=  7.7624317  0.0000000  0.0000000  G(1)=  0.1288256  0.0000000  0.0000000
 R(2)=  0.0000000  7.7624317  0.0000000  G(2)=  0.0000000  0.1288256  0.0000000
 R(3)=  0.0000000  0.0000000 53.6488515  G(3)=  0.0000000  0.0000000  0.0186397
 Unit cell volume ucvol=  3.2326301E+03 bohr^3
 Angles (23,13,12)=  9.00000000E+01  9.00000000E+01  9.00000000E+01 degrees

 getcut: wavevector=  0.0000  0.0000  0.0000  ngfft=  36  36 240
         ecut(hartree)=     22.500   => boxcut(ratio)=   2.09505
--------------------------------------------------------------------------------

-inwffil : will read wavefunctions from disk file Cs2TiI6o_DS1_WFK

================================================================================
 prteigrs : about to open file Cs2TiI6o_DS2_EIG
 Non-SCF case, kpt    1 (  0.08333  0.08333  0.50000), residuals and eigenvalues=
  6.52E-21  9.65E-22  4.33E-21  4.02E-21  6.73E-21  3.67E-21  3.86E-21  4.93E-21
  1.64E-21  3.82E-21  1.14E-21  3.18E-21  3.16E-21  2.64E-21  4.35E-21  3.43E-21
  3.52E-21  2.43E-21  6.80E-21  2.22E-21  4.19E-21  4.70E-21  4.16E-21  2.62E-21
  2.39E-21  6.74E-21  2.41E-21  2.56E-21  9.44E-22  5.15E-21  2.24E-21  2.77E-21
  2.97E-21  3.09E-21  7.28E-22  6.83E-21  7.58E-21  6.93E-22  8.62E-21  6.93E-21
  1.66E-21  3.46E-21  2.69E-21  3.39E-21  4.43E-21  3.29E-21  5.38E-21  1.71E-21
  1.60E-21  6.77E-21  1.90E-21  6.30E-21  1.98E-21  5.29E-21  3.02E-21  4.31E-21
  2.76E-21  2.44E-21  2.24E-21  6.60E-21  3.97E-21  5.39E-21  3.98E-21  4.10E-21
  9.67E-22  4.48E-21  1.66E-21  1.55E-21  5.00E-21  2.81E-21  3.45E-21  3.09E-21
  5.73E-21  4.56E-21  8.28E-21  6.07E-21  1.22E-21  1.19E-21  2.68E-21  1.20E-21
  5.75E-22  2.31E-22  6.07E-22  6.31E-22  3.85E-22  9.53E-22  1.55E-21  5.97E-22
  6.05E-22  1.01E-21  6.13E-22  5.33E-22  2.32E-21  1.82E-21  2.02E-21  1.54E-21
  2.82E-21  2.69E-21  1.47E-21  5.55E-22  2.46E-21  1.48E-21  1.40E-21  1.72E-21
  3.30E-21  2.07E-21  2.17E-21  2.08E-21  3.10E-21  5.96E-21  1.97E-21  1.06E-21
  2.02E-21  3.29E-21  4.11E-21  2.61E-21  3.44E-21  5.40E-21  6.89E-21  7.60E-21
  2.71E-21  5.96E-21  6.94E-21  9.16E-21  4.02E-21  7.25E-21  6.49E-21  5.04E-21
  4.34E-21  5.78E-21  8.21E-21  3.77E-21  8.06E-21  8.24E-21  4.23E-21  6.40E-21
  8.19E-21  3.61E-21  6.71E-21  8.26E-21  6.29E-21  5.52E-21  6.46E-21  8.07E-21
  4.23E-21  3.89E-21  3.88E-21  9.43E-21  3.82E-21  8.39E-21  5.27E-21  5.80E-21
  1.82E-21  9.86E-21  2.83E-21  7.74E-21  2.23E-21  2.48E-21  3.46E-21  4.29E-21
  5.57E-21  3.38E-21  6.71E-21  7.10E-21  6.09E-21  3.90E-21  4.75E-21  4.23E-21
  6.97E-21  6.45E-21  5.57E-21  3.05E-21  9.10E-21  2.72E-21  3.21E-21  6.04E-21
  9.00E-21  8.81E-21  2.87E-21  5.21E-21  6.04E-21  5.78E-21  6.51E-21  4.37E-21
  4.73E-21  5.12E-21  4.71E-21  4.69E-21  4.79E-21  4.44E-21  5.18E-21  5.79E-21
  4.65E-21  3.91E-21  8.23E-21  3.66E-21  6.40E-21  6.79E-21  4.01E-21  7.06E-21
  6.98E-21  6.05E-21  5.05E-21  3.68E-21  5.97E-21  9.15E-21  5.34E-21  8.46E-21
  4.43E-21  5.83E-21  5.17E-21  4.37E-21  2.83E-21  4.15E-21  6.52E-21  7.19E-21
  4.76E-21  6.00E-21  9.19E-21  9.52E-21  8.83E-21  8.28E-21  6.72E-21  9.77E-21
  5.44E-21  8.94E-21  5.44E-21  8.70E-21  5.81E-21  4.39E-21  4.96E-21  5.77E-21
  7.12E-21  9.03E-21  6.83E-21  8.73E-21  8.01E-21  5.01E-21  8.23E-21  6.05E-21
  9.82E-21  7.68E-21  9.81E-21  9.29E-21  8.83E-21  8.66E-21  7.60E-21  9.16E-21
  8.29E-15  1.16E-07
 -1.6611E+00 -1.6605E+00 -1.6575E+00 -1.6573E+00 -1.6566E+00 -1.6564E+00
 -1.6564E+00 -1.6557E+00 -1.6551E+00 -1.6551E+00 -1.6544E+00 -1.6541E+00
 -1.6538E+00 -1.6534E+00 -1.6533E+00 -1.6523E+00 -1.6523E+00 -1.6522E+00
 -1.6515E+00 -1.6512E+00 -1.6508E+00 -1.6506E+00 -1.6506E+00 -1.6497E+00
 -1.6492E+00 -1.6489E+00 -1.6468E+00 -1.6453E+00 -1.6433E+00 -1.6427E+00
 -1.6307E+00 -1.6306E+00 -1.6299E+00 -1.6297E+00 -1.6289E+00 -1.6260E+00
 -1.6260E+00 -1.6257E+00 -1.6251E+00 -1.6251E+00 -6.5314E-01 -6.5287E-01
 -6.5182E-01 -6.5165E-01 -6.5149E-01 -6.5138E-01 -6.5124E-01 -6.5061E-01
 -6.5057E-01 -6.5050E-01 -6.5045E-01 -6.4998E-01 -6.4997E-01 -6.4991E-01
 -6.4983E-01 -6.4963E-01 -6.4897E-01 -6.4864E-01 -6.4816E-01 -6.4813E-01
 -6.4435E-01 -6.4431E-01 -6.4377E-01 -6.4367E-01 -6.4349E-01 -6.4342E-01
 -6.4271E-01 -6.4233E-01 -6.4222E-01 -6.4210E-01 -6.4201E-01 -6.4200E-01
 -6.4152E-01 -6.4151E-01 -6.4134E-01 -6.4132E-01 -6.4096E-01 -6.4087E-01
 -6.4087E-01 -6.4075E-01 -4.0699E-01 -3.9988E-01 -3.8959E-01 -3.7755E-01
 -3.6296E-01 -3.4925E-01 -3.3570E-01 -3.3440E-01 -1.2932E-01 -1.2842E-01
 -1.1499E-01 -1.1109E-01 -9.3574E-02 -8.6607E-02 -6.5030E-02 -5.8430E-02
 -3.9109E-02 -2.9914E-02 -2.4429E-02 -1.5772E-02 -3.4909E-03  1.9696E-03
  1.0385E-02  1.4031E-02  2.1631E-02  2.6094E-02  3.1948E-02  3.9268E-02
  4.1294E-02  4.3835E-02  4.8945E-02  5.3647E-02  5.6693E-02  5.8662E-02
  7.6626E-02  8.6924E-02  9.0469E-02  9.9474E-02  1.3045E-01  1.3420E-01
  2.1773E-01  2.2019E-01  2.5636E-01  2.5847E-01  2.6422E-01  2.6490E-01
  2.6807E-01  2.7173E-01  2.7633E-01  2.7827E-01  2.8859E-01  2.8861E-01
  2.9258E-01  2.9471E-01  2.9974E-01  2.9974E-01  3.1090E-01  3.1125E-01
  3.1358E-01  3.2627E-01  3.3591E-01  3.3860E-01  3.3863E-01  3.4379E-01
  3.4665E-01  3.5646E-01  3.5683E-01  3.6392E-01  3.6536E-01  3.7614E-01
  3.7759E-01  3.8163E-01  3.8274E-01  3.8975E-01  3.9690E-01  3.9963E-01
  4.1130E-01  4.2210E-01  4.2998E-01  4.4985E-01  4.6617E-01  4.7157E-01
  4.7365E-01  4.8542E-01  4.9110E-01  4.9275E-01  4.9773E-01  5.1414E-01
  5.2011E-01  5.2403E-01  5.2504E-01  5.2776E-01  5.3538E-01  5.4157E-01
  5.4562E-01  5.5121E-01  5.5663E-01  5.5716E-01  5.6599E-01  5.6709E-01
  5.7080E-01  5.7217E-01  5.8186E-01  5.8635E-01  5.8843E-01  5.9322E-01
  6.0223E-01  6.0651E-01  6.0736E-01  6.1040E-01  6.1239E-01  6.1434E-01
  6.2850E-01  6.3694E-01  6.5481E-01  6.5482E-01  6.5506E-01  6.5583E-01
  6.5822E-01  6.6292E-01  6.7741E-01  6.7796E-01  6.8182E-01  6.9063E-01
  6.9157E-01  6.9972E-01  7.0352E-01  7.0977E-01  7.1764E-01  7.2571E-01
  7.3394E-01  7.3634E-01  7.4440E-01  7.4656E-01  7.4751E-01  7.5571E-01
  7.6084E-01  7.7736E-01  7.7769E-01  7.8053E-01  7.8228E-01  7.8546E-01
  7.9547E-01  7.9757E-01  8.0446E-01  8.2137E-01  8.2991E-01  8.3034E-01
  8.3889E-01  8.4128E-01  8.4632E-01  8.5091E-01  8.5245E-01  8.6870E-01
  8.7048E-01  8.7681E-01  8.7915E-01  8.7936E-01  9.0000E-01  9.0005E-01
  9.1028E-01  9.2112E-01  9.2274E-01  9.2385E-01  9.2443E-01  9.2448E-01
  9.3140E-01  9.3394E-01  9.3632E-01  9.3984E-01
  prteigrs : nnsclo,ikpt=  200    1 max resid (incl. the buffer)=  1.16450E-07
 prteigrs : prtvol=0 or 1, do not print more k-points.

  prteigrs : nnsclo,ikpt=  200    2 max resid (incl. the buffer)=  2.86411E-12
  prteigrs : nnsclo,ikpt=  200    3 max resid (incl. the buffer)=  1.41473E-11
  prteigrs : nnsclo,ikpt=  200    4 max resid (incl. the buffer)=  5.43768E-18
  prteigrs : nnsclo,ikpt=  200    5 max resid (incl. the buffer)=  8.71582E-07
  prteigrs : nnsclo,ikpt=  200    6 max resid (incl. the buffer)=  2.61673E-17


--- !ResultsGS
iteration_state: {dtset: 2, }
comment   : Summary of ground state results
lattice_vectors:
- [  7.7624317,   0.0000000,   0.0000000, ]
- [  0.0000000,   7.7624317,   0.0000000, ]
- [  0.0000000,   0.0000000,  53.6488515, ]
lattice_lengths: [   7.76243,    7.76243,   53.64885, ]
lattice_angles: [ 90.000,  90.000,  90.000, ] # degrees, (23, 13, 12)
lattice_volume:   3.2326301E+03
convergence: {deltae:  0.000E+00, res2:  0.000E+00, residm:  9.996E-21, diffor:  0.000E+00, }
etotal    :  -1.59152835E+03
entropy   :   0.00000000E+00
fermie    :   1.59570668E-01
cartesian_stress_tensor: null
pressure_GPa: null
xred      :
- [  5.0000E-01,   0.0000E+00,   1.6437E-01, Sn]
- [  0.0000E+00,   5.0000E-01,   2.6122E-01, Sn]
- [  5.0000E-01,   0.0000E+00,   3.5584E-01, Sn]
- [  0.0000E+00,   5.0000E-01,   4.5269E-01, Sn]
- [  5.0000E-01,   0.0000E+00,   5.4731E-01, Sn]
- [  0.0000E+00,   5.0000E-01,   6.4416E-01, Sn]
- [  5.0000E-01,   0.0000E+00,   7.3878E-01, Sn]
- [  0.0000E+00,   5.0000E-01,   8.3563E-01, Sn]
- [  0.0000E+00,   5.0000E-01,   1.6549E-01, Se]
- [  5.0000E-01,   0.0000E+00,   2.6011E-01, Se]
- [  0.0000E+00,   5.0000E-01,   3.5696E-01, Se]
- [  5.0000E-01,   0.0000E+00,   4.5157E-01, Se]
- [  0.0000E+00,   5.0000E-01,   5.4843E-01, Se]
- [  5.0000E-01,   0.0000E+00,   6.4304E-01, Se]
- [  0.0000E+00,   5.0000E-01,   7.3989E-01, Se]
- [  5.0000E-01,   0.0000E+00,   8.3451E-01, Se]
cartesian_forces: null
force_length_stats: {min: null, max: null, mean: null, }
...

 Integrated electronic density in atomic spheres:
 ------------------------------------------------
 Atom  Sphere_radius  Integrated_density
    1        2.00000         10.54232404
    2        2.00000         10.58166088
    3        2.00000         10.58244020
    4        2.00000         10.58204262
    5        2.00000         10.58204262
    6        2.00000         10.58244020
    7        2.00000         10.58166088
    8        2.00000         10.54232404
    9        2.00000         13.30540562
   10        2.00000         13.30855689
   11        2.00000         13.33448599
   12        2.00000         13.32742401
   13        2.00000         13.32742401
   14        2.00000         13.33448599
   15        2.00000         13.30855689
   16        2.00000         13.30540562
================================================================================

 ----iterations are completed or convergence reached----

 Mean square residual over all n,k,spin=   48.170E-22; max=  99.958E-22
 reduced coordinates (array xred) for   16 atoms
       0.500000000000      0.000000000000      0.164372000000
       0.000000000000      0.500000000000      0.261224000000
       0.500000000000      0.000000000000      0.355840000000
       0.000000000000      0.500000000000      0.452692000000
       0.500000000000      0.000000000000      0.547308000000
       0.000000000000      0.500000000000      0.644160000000
       0.500000000000      0.000000000000      0.738776000000
       0.000000000000      0.500000000000      0.835628000000
       0.000000000000      0.500000000000      0.165490000000
       0.500000000000      0.000000000000      0.260106000000
       0.000000000000      0.500000000000      0.356958000000
       0.500000000000      0.000000000000      0.451574000000
       0.000000000000      0.500000000000      0.548426000000
       0.500000000000      0.000000000000      0.643042000000
       0.000000000000      0.500000000000      0.739894000000
       0.500000000000      0.000000000000      0.834510000000

 cartesian coordinates (angstrom) at end:
    1      2.05385096425820     0.00000000000000     4.66647990579236
    2      0.00000000000000     2.05385096425820     7.41608392494284
    3      2.05385096425820     0.00000000000000    10.10220846419800
    4      0.00000000000000     2.05385096425820    12.85181248334848
    5      2.05385096425820     0.00000000000000    15.53793702260364
    6      0.00000000000000     2.05385096425820    18.28754104175411
    7      2.05385096425820     0.00000000000000    20.97366558100928
    8      0.00000000000000     2.05385096425820    23.72326960015976
    9      0.00000000000000     2.05385096425820     4.69821964574002
   10      2.05385096425820     0.00000000000000     7.38434418499518
   11      0.00000000000000     2.05385096425820    10.13394820414566
   12      2.05385096425820     0.00000000000000    12.82007274340082
   13      0.00000000000000     2.05385096425820    15.56967676255129
   14      2.05385096425820     0.00000000000000    18.25580130180646
   15      0.00000000000000     2.05385096425820    21.00540532095694
   16      2.05385096425820     0.00000000000000    23.69152986021210
 length scales=  7.762431680422  7.762431680422  7.762431680422 bohr
              =  4.107701928516  4.107701928516  4.107701928516 angstroms
 prteigrs : about to open file Cs2TiI6o_DS2_EIG
 Eigenvalues (hartree) for nkpt=   6  k points:
 kpt#   1, nband=250, wtk=  0.11111, kpt=  0.0833  0.0833  0.5000 (reduced coord)
  -1.66111   -1.66052   -1.65747   -1.65730   -1.65665   -1.65643   -1.65635   -1.65572
  -1.65512   -1.65507   -1.65443   -1.65408   -1.65382   -1.65339   -1.65328   -1.65232
  -1.65230   -1.65222   -1.65152   -1.65123   -1.65077   -1.65062   -1.65056   -1.64966
  -1.64920   -1.64892   -1.64683   -1.64534   -1.64329   -1.64273   -1.63067   -1.63057
  -1.62986   -1.62969   -1.62891   -1.62600   -1.62599   -1.62565   -1.62510   -1.62509
  -0.65314   -0.65287   -0.65182   -0.65165   -0.65149   -0.65138   -0.65124   -0.65061
  -0.65057   -0.65050   -0.65045   -0.64998   -0.64997   -0.64991   -0.64983   -0.64963
  -0.64897   -0.64864   -0.64816   -0.64813   -0.64435   -0.64431   -0.64377   -0.64367
  -0.64349   -0.64342   -0.64271   -0.64233   -0.64222   -0.64210   -0.64201   -0.64200
  -0.64152   -0.64151   -0.64134   -0.64132   -0.64096   -0.64087   -0.64087   -0.64075
  -0.40699   -0.39988   -0.38959   -0.37755   -0.36296   -0.34925   -0.33570   -0.33440
  -0.12932   -0.12842   -0.11499   -0.11109   -0.09357   -0.08661   -0.06503   -0.05843
  -0.03911   -0.02991   -0.02443   -0.01577   -0.00349    0.00197    0.01038    0.01403
   0.02163    0.02609    0.03195    0.03927    0.04129    0.04384    0.04895    0.05365
   0.05669    0.05866    0.07663    0.08692    0.09047    0.09947    0.13045    0.13420
   0.21773    0.22019    0.25636    0.25847    0.26422    0.26490    0.26807    0.27173
   0.27633    0.27827    0.28859    0.28861    0.29258    0.29471    0.29974    0.29974
   0.31090    0.31125    0.31358    0.32627    0.33591    0.33860    0.33863    0.34379
   0.34665    0.35646    0.35683    0.36392    0.36536    0.37614    0.37759    0.38163
   0.38274    0.38975    0.39690    0.39963    0.41130    0.42210    0.42998    0.44985
   0.46617    0.47157    0.47365    0.48542    0.49110    0.49275    0.49773    0.51414
   0.52011    0.52403    0.52504    0.52776    0.53538    0.54157    0.54562    0.55121
   0.55663    0.55716    0.56599    0.56709    0.57080    0.57217    0.58186    0.58635
   0.58843    0.59322    0.60223    0.60651    0.60736    0.61040    0.61239    0.61434
   0.62850    0.63694    0.65481    0.65482    0.65506    0.65583    0.65822    0.66292
   0.67741    0.67796    0.68182    0.69063    0.69157    0.69972    0.70352    0.70977
   0.71764    0.72571    0.73394    0.73634    0.74440    0.74656    0.74751    0.75571
   0.76084    0.77736    0.77769    0.78053    0.78228    0.78546    0.79547    0.79757
   0.80446    0.82137    0.82991    0.83034    0.83889    0.84128    0.84632    0.85091
   0.85245    0.86870    0.87048    0.87681    0.87915    0.87936    0.90000    0.90005
   0.91028    0.92112    0.92274    0.92385    0.92443    0.92448    0.93140    0.93394
   0.93632    0.93984
 prteigrs : prtvol=0 or 1, do not print more k-points.


================================================================================
== DATASET  3 ==================================================================
-   mpi_nproc: 6, omp_nthreads: -1 (-1 if OMP is not activated)


--- !DatasetInfo
iteration_state: {dtset: 3, }
dimensions: {natom: 16, nkpt: 18, mband: 250, nsppol: 1, nspinor: 1, nspden: 1, mpw: 16512, }
cutoff_energies: {ecut:  22.5, pawecutdg:  -1.0, }
electrons: {nelect:   2.40000000E+02, charge:   0.00000000E+00, occopt:   1.00000000E+00, tsmear:   1.00000000E-02, }
meta: {optdriver: 0, ionmov: 0, optcell: 0, iscf: -2, paral_kgb: 0, }
...

 mkfilename : getwfk/=0, take file _WFK from output of DATASET   2.

 mkfilename : getden/=0, take file _DEN from output of DATASET   1.

 Exchange-correlation functional for the present dataset will be:
  GGA: Perdew-Burke-Ernzerhof functional - ixc=11
 Citation for XC functional:
  J.P.Perdew, K.Burke, M.Ernzerhof, PRL 77, 3865 (1996)

 Real(R)+Recip(G) space primitive vectors, cartesian coordinates (Bohr,Bohr^-1):
 R(1)=  7.7624317  0.0000000  0.0000000  G(1)=  0.1288256  0.0000000  0.0000000
 R(2)=  0.0000000  7.7624317  0.0000000  G(2)=  0.0000000  0.1288256  0.0000000
 R(3)=  0.0000000  0.0000000 53.6488515  G(3)=  0.0000000  0.0000000  0.0186397
 Unit cell volume ucvol=  3.2326301E+03 bohr^3
 Angles (23,13,12)=  9.00000000E+01  9.00000000E+01  9.00000000E+01 degrees

 getcut: wavevector=  0.0000  0.0000  0.0000  ngfft=  36  36 240
         ecut(hartree)=     22.500   => boxcut(ratio)=   2.09505
--------------------------------------------------------------------------------

-inwffil : will read wavefunctions from disk file Cs2TiI6o_DS2_WFK

================================================================================
 prteigrs : about to open file Cs2TiI6o_DS3_EIG
 Non-SCF case, kpt    1 (  0.08333  0.08333  0.50000), residuals and eigenvalues=
  6.52E-21  9.65E-22  4.33E-21  4.02E-21  6.73E-21  3.67E-21  3.86E-21  4.93E-21
  1.64E-21  3.82E-21  1.14E-21  3.18E-21  3.16E-21  2.64E-21  4.35E-21  3.43E-21
  3.52E-21  2.43E-21  6.80E-21  2.22E-21  4.19E-21  4.70E-21  4.16E-21  2.62E-21
  2.39E-21  6.74E-21  2.41E-21  2.56E-21  9.44E-22  5.15E-21  2.24E-21  2.77E-21
  2.97E-21  3.09E-21  7.28E-22  6.83E-21  7.58E-21  6.93E-22  8.62E-21  6.93E-21
  1.66E-21  3.46E-21  2.69E-21  3.39E-21  4.43E-21  3.29E-21  5.38E-21  1.71E-21
  1.60E-21  6.77E-21  1.90E-21  6.30E-21  1.98E-21  5.29E-21  3.02E-21  4.31E-21
  2.76E-21  2.44E-21  2.24E-21  6.60E-21  3.97E-21  5.39E-21  3.98E-21  4.10E-21
[...]
                       2.000000  2.000000  2.000000  2.000000  2.000000  2.000000
                       2.000000  2.000000  2.000000  2.000000  2.000000  2.000000
                       2.000000  2.000000  2.000000  2.000000  2.000000  2.000000
                       2.000000  2.000000  2.000000  2.000000  2.000000  2.000000
                       2.000000  2.000000  2.000000  2.000000  2.000000  2.000000
                       2.000000  2.000000  2.000000  2.000000  2.000000  2.000000
                       2.000000  2.000000  2.000000  2.000000  2.000000  2.000000
                       2.000000  2.000000  2.000000  2.000000  2.000000  2.000000
                       2.000000  2.000000  2.000000  2.000000  2.000000  2.000000
                       2.000000  2.000000  2.000000  2.000000  2.000000  2.000000
                       2.000000  2.000000  2.000000  2.000000  2.000000  2.000000
                       2.000000  2.000000  2.000000  2.000000  2.000000  2.000000
                       2.000000  2.000000  2.000000  2.000000  2.000000  2.000000
                       2.000000  2.000000  2.000000  2.000000  2.000000  2.000000
                       2.000000  2.000000  2.000000  2.000000  2.000000  2.000000
                       2.000000  2.000000  2.000000  2.000000  2.000000  2.000000
                       2.000000  2.000000  2.000000  2.000000  2.000000  2.000000
                       0.000000  0.000000  0.000000  0.000000  0.000000  0.000000
                       0.000000  0.000000  0.000000  0.000000  0.000000  0.000000
                       0.000000  0.000000  0.000000  0.000000  0.000000  0.000000
                       0.000000  0.000000  0.000000  0.000000  0.000000  0.000000
                       0.000000  0.000000  0.000000  0.000000  0.000000  0.000000
                       0.000000  0.000000  0.000000  0.000000  0.000000  0.000000
                       0.000000  0.000000  0.000000  0.000000  0.000000  0.000000
                       0.000000  0.000000  0.000000  0.000000  0.000000  0.000000
                       0.000000  0.000000  0.000000  0.000000  0.000000  0.000000
                       0.000000  0.000000  0.000000  0.000000  0.000000  0.000000
                       0.000000  0.000000  0.000000  0.000000  0.000000  0.000000
                       0.000000  0.000000  0.000000  0.000000  0.000000  0.000000
                       0.000000  0.000000  0.000000  0.000000  0.000000  0.000000
                       0.000000  0.000000  0.000000  0.000000  0.000000  0.000000
                       0.000000  0.000000  0.000000  0.000000  0.000000  0.000000
                       0.000000  0.000000  0.000000  0.000000  0.000000  0.000000
                       0.000000  0.000000  0.000000  0.000000  0.000000  0.000000
                       0.000000  0.000000  0.000000  0.000000  0.000000  0.000000
                       0.000000  0.000000  0.000000  0.000000  0.000000  0.000000
                       0.000000  0.000000  0.000000  0.000000  0.000000  0.000000
                       0.000000  0.000000  0.000000  0.000000  0.000000  0.000000
                       0.000000  0.000000  0.000000  0.000000
              occ6     2.000000  2.000000  2.000000  2.000000  2.000000  2.000000
                       2.000000  2.000000  2.000000  2.000000  2.000000  2.000000
                       2.000000  2.000000  2.000000  2.000000  2.000000  2.000000
                       2.000000  2.000000  2.000000  2.000000  2.000000  2.000000
                       2.000000  2.000000  2.000000  2.000000  2.000000  2.000000
                       2.000000  2.000000  2.000000  2.000000  2.000000  2.000000
                       2.000000  2.000000  2.000000  2.000000  2.000000  2.000000
                       2.000000  2.000000  2.000000  2.000000  2.000000  2.000000
                       2.000000  2.000000  2.000000  2.000000  2.000000  2.000000
                       2.000000  2.000000  2.000000  2.000000  2.000000  2.000000
                       2.000000  2.000000  2.000000  2.000000  2.000000  2.000000
                       2.000000  2.000000  2.000000  2.000000  2.000000  2.000000
                       2.000000  2.000000  2.000000  2.000000  2.000000  2.000000
                       2.000000  2.000000  2.000000  2.000000  2.000000  2.000000
                       2.000000  2.000000  2.000000  2.000000  2.000000  2.000000
                       2.000000  2.000000  2.000000  2.000000  2.000000  2.000000
                       2.000000  2.000000  2.000000  2.000000  2.000000  2.000000
                       2.000000  2.000000  2.000000  2.000000  2.000000  2.000000
                       2.000000  2.000000  2.000000  2.000000  2.000000  2.000000
                       2.000000  2.000000  2.000000  2.000000  2.000000  2.000000
                       0.000000  0.000000  0.000000  0.000000  0.000000  0.000000
                       0.000000  0.000000  0.000000  0.000000  0.000000  0.000000
                       0.000000  0.000000  0.000000  0.000000  0.000000  0.000000
                       0.000000  0.000000  0.000000  0.000000  0.000000  0.000000
                       0.000000  0.000000  0.000000  0.000000  0.000000  0.000000
                       0.000000  0.000000  0.000000  0.000000  0.000000  0.000000
                       0.000000  0.000000  0.000000  0.000000  0.000000  0.000000
                       0.000000  0.000000  0.000000  0.000000  0.000000  0.000000
                       0.000000  0.000000  0.000000  0.000000  0.000000  0.000000
                       0.000000  0.000000  0.000000  0.000000  0.000000  0.000000
                       0.000000  0.000000  0.000000  0.000000  0.000000  0.000000
                       0.000000  0.000000  0.000000  0.000000  0.000000  0.000000
                       0.000000  0.000000  0.000000  0.000000  0.000000  0.000000
                       0.000000  0.000000  0.000000  0.000000  0.000000  0.000000
                       0.000000  0.000000  0.000000  0.000000  0.000000  0.000000
                       0.000000  0.000000  0.000000  0.000000  0.000000  0.000000
                       0.000000  0.000000  0.000000  0.000000  0.000000  0.000000
                       0.000000  0.000000  0.000000  0.000000  0.000000  0.000000
                       0.000000  0.000000  0.000000  0.000000  0.000000  0.000000
                       0.000000  0.000000  0.000000  0.000000  0.000000  0.000000
                       0.000000  0.000000  0.000000  0.000000  0.000000  0.000000
                       0.000000  0.000000  0.000000  0.000000
        optdriver1          0
        optdriver2          0
        optdriver3          0
        optdriver4          1
        optdriver5          1
        optdriver6          1
            prtwf1          1
            prtwf2          1
            prtwf3          1
            prtwf4          3
            prtwf5          3
            prtwf6          3
            rfdir1          0       0       0
            rfdir2          0       0       0
            rfdir3          0       0       0
            rfdir4          1       0       0
            rfdir5          0       1       0
            rfdir6          0       0       1
           rfelfd1          0
           rfelfd2          0
           rfelfd3          0
           rfelfd4          2
           rfelfd5          2
           rfelfd6          2
            rprim      1.0000000000E+00  0.0000000000E+00  0.0000000000E+00
                       0.0000000000E+00  1.0000000000E+00  0.0000000000E+00
                       0.0000000000E+00  0.0000000000E+00  6.9113460519E+00
           shiftk      5.00000000E-01  5.00000000E-01  5.00000000E-01
          spgroup         129
           strten1     1.4149783006E-02  1.4149783006E-02  1.3852783829E-02
                       0.0000000000E+00  0.0000000000E+00  0.0000000000E+00
           symrel      1  0  0   0  1  0   0  0  1      -1  0  0   0 -1  0   0  0 -1
                      -1  0  0   0  1  0   0  0 -1       1  0  0   0 -1  0   0  0  1
                      -1  0  0   0 -1  0   0  0  1       1  0  0   0  1  0   0  0 -1
                       1  0  0   0 -1  0   0  0 -1      -1  0  0   0  1  0   0  0  1
                       0  1  0   1  0  0   0  0  1       0 -1  0  -1  0  0   0  0 -1
                       0 -1  0   1  0  0   0  0 -1       0  1  0  -1  0  0   0  0  1
                       0 -1  0  -1  0  0   0  0  1       0  1  0   1  0  0   0  0 -1
                       0  1  0  -1  0  0   0  0 -1       0 -1  0   1  0  0   0  0  1
            tnons      0.0000000  0.0000000  0.0000000     0.5000000  0.5000000 -0.0000000
                       0.5000000  0.5000000 -0.0000000     0.0000000  0.0000000  0.0000000
                      -0.0000000  0.0000000  0.0000000     0.5000000  0.5000000 -0.0000000
                       0.5000000  0.5000000 -0.0000000    -0.0000000  0.0000000  0.0000000
                       0.5000000  0.5000000  0.0000000     0.0000000 -0.0000000 -0.0000000
                       0.0000000 -0.0000000 -0.0000000     0.5000000  0.5000000  0.0000000
                       0.5000000  0.5000000  0.0000000     0.0000000  0.0000000 -0.0000000
                       0.0000000  0.0000000 -0.0000000     0.5000000  0.5000000  0.0000000
           tolwfr      1.00000000E-20
            typat      1  1  1  1  1  1  1  1  2  2  2  2  2  2  2  2
           vdw_xc           5
              wtk1       0.11111    0.22222    0.22222    0.11111    0.22222    0.11111
              wtk2       0.11111    0.22222    0.22222    0.11111    0.22222    0.11111
              wtk3       0.05556    0.05556    0.05556    0.05556    0.05556    0.05556
                         0.05556    0.05556    0.05556    0.05556    0.05556    0.05556
                         0.05556    0.05556    0.05556    0.05556    0.05556    0.05556
              wtk4       0.05556    0.05556    0.05556    0.05556    0.05556    0.05556
                         0.05556    0.05556    0.05556    0.05556    0.05556    0.05556
                         0.05556    0.05556    0.05556    0.05556    0.05556    0.05556
              wtk5       0.05556    0.05556    0.05556    0.05556    0.05556    0.05556
                         0.05556    0.05556    0.05556    0.05556    0.05556    0.05556
                         0.05556    0.05556    0.05556    0.05556    0.05556    0.05556
              wtk6       0.05556    0.05556    0.05556    0.05556    0.05556    0.05556
                         0.05556    0.05556    0.05556    0.05556    0.05556    0.05556
                         0.05556    0.05556    0.05556    0.05556    0.05556    0.05556
           xangst      2.0538509643E+00  0.0000000000E+00  4.6664799058E+00
                       0.0000000000E+00  2.0538509643E+00  7.4160839249E+00
                       2.0538509643E+00  0.0000000000E+00  1.0102208464E+01
                       0.0000000000E+00  2.0538509643E+00  1.2851812483E+01
                       2.0538509643E+00  0.0000000000E+00  1.5537937023E+01
                       0.0000000000E+00  2.0538509643E+00  1.8287541042E+01
                       2.0538509643E+00  0.0000000000E+00  2.0973665581E+01
                       0.0000000000E+00  2.0538509643E+00  2.3723269600E+01
                       0.0000000000E+00  2.0538509643E+00  4.6982196457E+00
                       2.0538509643E+00  0.0000000000E+00  7.3843441850E+00
                       0.0000000000E+00  2.0538509643E+00  1.0133948204E+01
                       2.0538509643E+00  0.0000000000E+00  1.2820072743E+01
                       0.0000000000E+00  2.0538509643E+00  1.5569676763E+01
                       2.0538509643E+00  0.0000000000E+00  1.8255801302E+01
                       0.0000000000E+00  2.0538509643E+00  2.1005405321E+01
                       2.0538509643E+00  0.0000000000E+00  2.3691529860E+01
            xcart      3.8812158402E+00  0.0000000000E+00  8.8183690266E+00
                       0.0000000000E+00  3.8812158402E+00  1.4014367597E+01
                       3.8812158402E+00  0.0000000000E+00  1.9090407335E+01
                       0.0000000000E+00  3.8812158402E+00  2.4286405905E+01
                       3.8812158402E+00  0.0000000000E+00  2.9362445643E+01
                       0.0000000000E+00  3.8812158402E+00  3.4558444213E+01
                       3.8812158402E+00  0.0000000000E+00  3.9634483951E+01
                       0.0000000000E+00  3.8812158402E+00  4.4830482521E+01
                       0.0000000000E+00  3.8812158402E+00  8.8783484426E+00
                       3.8812158402E+00  0.0000000000E+00  1.3954388181E+01
                       0.0000000000E+00  3.8812158402E+00  1.9150386751E+01
                       3.8812158402E+00  0.0000000000E+00  2.4226426489E+01
                       0.0000000000E+00  3.8812158402E+00  2.9422425059E+01
                       3.8812158402E+00  0.0000000000E+00  3.4498464797E+01
                       0.0000000000E+00  3.8812158402E+00  3.9694463367E+01
                       3.8812158402E+00  0.0000000000E+00  4.4770503105E+01
             xred      5.0000000000E-01  0.0000000000E+00  1.6437200000E-01
                       0.0000000000E+00  5.0000000000E-01  2.6122400000E-01
                       5.0000000000E-01  0.0000000000E+00  3.5584000000E-01
                       0.0000000000E+00  5.0000000000E-01  4.5269200000E-01
                       5.0000000000E-01  0.0000000000E+00  5.4730800000E-01
                       0.0000000000E+00  5.0000000000E-01  6.4416000000E-01
                       5.0000000000E-01  0.0000000000E+00  7.3877600000E-01
                       0.0000000000E+00  5.0000000000E-01  8.3562800000E-01
                       0.0000000000E+00  5.0000000000E-01  1.6549000000E-01
                       5.0000000000E-01  0.0000000000E+00  2.6010600000E-01
                       0.0000000000E+00  5.0000000000E-01  3.5695800000E-01
                       5.0000000000E-01  0.0000000000E+00  4.5157400000E-01
                       0.0000000000E+00  5.0000000000E-01  5.4842600000E-01
                       5.0000000000E-01  0.0000000000E+00  6.4304200000E-01
                       0.0000000000E+00  5.0000000000E-01  7.3989400000E-01
                       5.0000000000E-01  0.0000000000E+00  8.3451000000E-01
            znucl       50.00000   34.00000

================================================================================


- Timing analysis has been suppressed with timopt=0



================================================================================

 Suggested references for the acknowledgment of ABINIT usage.

 The users of ABINIT have little formal obligations with respect to the ABINIT group
 (those specified in the GNU General Public License, http://www.gnu.org/copyleft/gpl.txt).
 However, it is common practice in the scientific literature,
 to acknowledge the efforts of people that have made the research possible.
 In this spirit, please find below suggested citations of work written by ABINIT developers,
 corresponding to implementations inside of ABINIT that you have used in the present run.
 Note also that it will be of great value to readers of publications presenting these results,
 to read papers enabling them to understand the theoretical formalism and details
 of the ABINIT implementation.
 For information on why they are suggested, see also https://docs.abinit.org/theory/acknowledgments.
-
- [1] The Abinit project: Impact, environment and recent developments.
- Computer Phys. Comm. 248, 107042 (2020).
- X.Gonze, B. Amadon, G. Antonius, F.Arnardi, L.Baguet, J.-M.Beuken,
- J.Bieder, F.Bottin, J.Bouchet, E.Bousquet, N.Brouwer, F.Bruneval,
- G.Brunin, T.Cavignac, J.-B. Charraud, Wei Chen, M.Cote, S.Cottenier,
- J.Denier, G.Geneste, Ph.Ghosez, M.Giantomassi, Y.Gillet, O.Gingras,
- D.R.Hamann, G.Hautier, Xu He, N.Helbig, N.Holzwarth, Y.Jia, F.Jollet,
- W.Lafargue-Dit-Hauret, K.Lejaeghere, M.A.L.Marques, A.Martin, C.Martins,
- H.P.C. Miranda, F.Naccarato, K. Persson, G.Petretto, V.Planes, Y.Pouillon,
- S.Prokhorenko, F.Ricci, G.-M.Rignanese, A.H.Romero, M.M.Schmitt, M.Torrent,
- M.J.van Setten, B.Van Troeye, M.J.Verstraete, G.Zerah and J.W.Zwanzig
- Comment: the fifth generic paper describing the ABINIT project.
- Note that a version of this paper, that is not formatted for Computer Phys. Comm. 
- is available at https://www.abinit.org/sites/default/files/ABINIT20.pdf .
- The licence allows the authors to put it on the Web.
- DOI and bibtex: see https://docs.abinit.org/theory/bibliography/#gonze2020
-
- [2] First-principles responses of solids to atomic displacements and homogeneous electric fields:,
- implementation of a conjugate-gradient algorithm. X. Gonze, Phys. Rev. B55, 10337 (1997).
- Comment: Non-vanishing rfphon and/or rfelfd, in the norm-conserving case.
- DOI and bibtex: see https://docs.abinit.org/theory/bibliography/#gonze1997
-
- [3] Dynamical matrices, Born effective charges, dielectric permittivity tensors, and ,
- interatomic force constants from density-functional perturbation theory,
- X. Gonze and C. Lee, Phys. Rev. B55, 10355 (1997).
- Comment: Non-vanishing rfphon and/or rfelfd, in the norm-conserving case.
- DOI and bibtex: see https://docs.abinit.org/theory/bibliography/#gonze1997a
-
- [4] Optimized norm-conserving Vanderbilt pseudopotentials.
- D.R. Hamann, Phys. Rev. B 88, 085117 (2013).
- Comment: Some pseudopotential generated using the ONCVPSP code were used.
- DOI and bibtex: see https://docs.abinit.org/theory/bibliography/#hamann2013
-
- [5] ABINIT: Overview, and focus on selected capabilities
- J. Chem. Phys. 152, 124102 (2020).
- A. Romero, D.C. Allan, B. Amadon, G. Antonius, T. Applencourt, L.Baguet,
- J.Bieder, F.Bottin, J.Bouchet, E.Bousquet, F.Bruneval,
- G.Brunin, D.Caliste, M.Cote,
- J.Denier, C. Dreyer, Ph.Ghosez, M.Giantomassi, Y.Gillet, O.Gingras,
- D.R.Hamann, G.Hautier, F.Jollet, G. Jomard,
- A.Martin, 
- H.P.C. Miranda, F.Naccarato, G.Petretto, N.A. Pike, V.Planes,
- S.Prokhorenko, T. Rangel, F.Ricci, G.-M.Rignanese, M.Royo, M.Stengel, M.Torrent,
- M.J.van Setten, B.Van Troeye, M.J.Verstraete, J.Wiktor, J.W.Zwanziger, and X.Gonze.
- Comment: a global overview of ABINIT, with focus on selected capabilities .
- Note that a version of this paper, that is not formatted for J. Chem. Phys 
- is available at https://www.abinit.org/sites/default/files/ABINIT20_JPC.pdf .
- The licence allows the authors to put it on the Web.
- DOI and bibtex: see https://docs.abinit.org/theory/bibliography/#romero2020
-
- [6] Recent developments in the ABINIT software package.
- Computer Phys. Comm. 205, 106 (2016).
- X.Gonze, F.Jollet, F.Abreu Araujo, D.Adams, B.Amadon, T.Applencourt,
- C.Audouze, J.-M.Beuken, J.Bieder, A.Bokhanchuk, E.Bousquet, F.Bruneval
- D.Caliste, M.Cote, F.Dahm, F.Da Pieve, M.Delaveau, M.Di Gennaro,
- B.Dorado, C.Espejo, G.Geneste, L.Genovese, A.Gerossier, M.Giantomassi,
- Y.Gillet, D.R.Hamann, L.He, G.Jomard, J.Laflamme Janssen, S.Le Roux,
- A.Levitt, A.Lherbier, F.Liu, I.Lukacevic, A.Martin, C.Martins,
- M.J.T.Oliveira, S.Ponce, Y.Pouillon, T.Rangel, G.-M.Rignanese,
- A.H.Romero, B.Rousseau, O.Rubel, A.A.Shukri, M.Stankovski, M.Torrent,
- M.J.Van Setten, B.Van Troeye, M.J.Verstraete, D.Waroquier, J.Wiktor,
- B.Xu, A.Zhou, J.W.Zwanziger.
- Comment: the fourth generic paper describing the ABINIT project.
- Note that a version of this paper, that is not formatted for Computer Phys. Comm. 
- is available at https://www.abinit.org/sites/default/files/ABINIT16.pdf .
- The licence allows the authors to put it on the Web.
- DOI and bibtex: see https://docs.abinit.org/theory/bibliography/#gonze2016
-
- Proc.   0 individual time (sec): cpu=       5872.3  wall=       5872.4

================================================================================

 Calculation completed.
.Delivered   6 WARNINGs and   0 COMMENTs to log file.
+Overall time at end (sec) : cpu=      35233.4  wall=      35234.3
