  ABINIT 9.2.2
  
 DeprecationWarning: 

     The files file has been deprecated in Abinit9 and will be removed in Abinit10.
     Use the syntax `abinit t01.abi` where t01.abi is an input with pseudopotenials.

            pseudos = "al.psp8, as.psp8"


  Give name for formatted input file: 
Cs2TiI6.in
  Give name for formatted output file:
Cs2TiI6.out
  Give root name for generic input files:
Cs2TiI6i
  Give root name for generic output files:
Cs2TiI6o
  Give root name for generic temporary files:
Cs2TiI6

.Version 9.2.2 of ABINIT 
.(MPI version, prepared for a x86_64_linux_gnu9.3 computer) 

.Copyright (C) 1998-2020 ABINIT group . 
 ABINIT comes with ABSOLUTELY NO WARRANTY.
 It is free software, and you are welcome to redistribute it
 under certain conditions (GNU General Public License,
 see ~abinit/COPYING or http://www.gnu.org/copyleft/gpl.txt).

 ABINIT is a project of the Universite Catholique de Louvain,
 Corning Inc. and other collaborators, see ~abinit/doc/developers/contributors.txt .
 Please read https://docs.abinit.org/theory/acknowledgments for suggested
 acknowledgments of the ABINIT effort.
 For more information, see https://www.abinit.org .

.Starting date : Thu 29 Feb 2024.
- ( at 02h10 )
  
- The starting date is more than 3 years after the initial release
- of this version of ABINIT, namely Nov 2020.
- This version of ABINIT is not supported anymore.
- Action: please, switch to a more recent version of ABINIT.

 ++++++++++++++++++++++++++++++++++++++++++++++++++++++++++++++++++++++++++++++

 === Build Information === 
  Version       : 9.2.2
  Build target  : x86_64_linux_gnu9.3
  Build date    : 20210501

 === Compiler Suite === 
  C compiler       : gnu9.3
  C++ compiler     : generic0.0
  Fortran compiler : gnu9.3
  CFLAGS           : -g -O2 -mtune=native -march=native
  CXXFLAGS         : 
  FCFLAGS          : -g -ffree-line-length-none
  FC_LDFLAGS       : 

 === Optimizations === 
  Debug level        : basic
  Optimization level : standard
  Architecture       : unknown_unknown

 === Multicore === 
  Parallel build : yes
  Parallel I/O   : yes
  openMP support : 
  GPU support    : 

 === Connectors / Fallbacks === 
  LINALG flavor  : netlib
  FFT flavor     : goedecker
  HDF5           : yes
  NetCDF         : yes
  NetCDF Fortran : yes
  LibXC          : yes
  Wannier90      : no

 === Experimental features === 
  Exports             : 
  GW double-precision : 

 ++++++++++++++++++++++++++++++++++++++++++++++++++++++++++++++++++++++++++++++


 ++++++++++++++++++++++++++++++++++++++++++++++++++++++++++++++++++++++++++++++
 Default optimizations:
   -O2 -mtune=native -march=native


 Optimizations for 43_ptgroups:
   -O0


 ++++++++++++++++++++++++++++++++++++++++++++++++++++++++++++++++++++++++++++++


 ++++++++++++++++++++++++++++++++++++++++++++++++++++++++++++++++++++++++++++++
 CPP options activated during the build:

                    CC_GNU                    FC_GNU HAVE_FC_ALLOCATABLE_DT...
 
             HAVE_FC_ASYNC         HAVE_FC_BACKTRACE  HAVE_FC_COMMAND_ARGUMENT
 
      HAVE_FC_COMMAND_LINE        HAVE_FC_CONTIGUOUS           HAVE_FC_CPUTIME
 
              HAVE_FC_EXIT             HAVE_FC_FLUSH             HAVE_FC_GAMMA
 
            HAVE_FC_GETENV   HAVE_FC_IEEE_ARITHMETIC   HAVE_FC_IEEE_EXCEPTIONS
 
          HAVE_FC_INT_QUAD             HAVE_FC_IOMSG     HAVE_FC_ISO_C_BINDING
 
  HAVE_FC_ISO_FORTRAN_2008        HAVE_FC_LONG_LINES        HAVE_FC_MOVE_ALLOC
 
  HAVE_FC_ON_THE_FLY_SHAPE           HAVE_FC_PRIVATE         HAVE_FC_PROTECTED
 
           HAVE_FC_SHIFTLR         HAVE_FC_STREAM_IO            HAVE_FC_SYSTEM
 
          HAVE_FORTRAN2003                 HAVE_HDF5        HAVE_LIBPAW_ABINIT
 
      HAVE_LIBTETRA_ABINIT                HAVE_LIBXC                  HAVE_MPI
 
                 HAVE_MPI2       HAVE_MPI_IALLGATHER       HAVE_MPI_IALLREDUCE
 
        HAVE_MPI_IALLTOALL       HAVE_MPI_IALLTOALLV           HAVE_MPI_IBCAST
 
         HAVE_MPI_IGATHERV        HAVE_MPI_INTEGER16               HAVE_MPI_IO
 
 HAVE_MPI_TYPE_CREATE_S...               HAVE_NETCDF       HAVE_NETCDF_FORTRAN
 
             HAVE_OS_LINUX         HAVE_TIMER_ABINIT                            
 ++++++++++++++++++++++++++++++++++++++++++++++++++++++++++++++++++++++++++++++

- input  file    -> Cs2TiI6.in
- output file    -> Cs2TiI6.out
- root for input  files -> Cs2TiI6i
- root for output files -> Cs2TiI6o

-instrng: 97 lines of input have been read from file Cs2TiI6.in


 Please give name of formatted atomic psp file (and finish with a newline character)
 For atom type 1, psp file is ../../../Psps_for_tests/ATOMICDATA_NC/Sn.psp8

 Please give name of formatted atomic psp file (and finish with a newline character)
 For atom type 2, psp file is ../../../Psps_for_tests/ATOMICDATA_NC/Se.psp8
  read the values zionpsp= 14.0 , pspcod=   8 , lmax=   2
  read the values zionpsp= 16.0 , pspcod=   8 , lmax=   2

 inpspheads: deduce mpsang = 3, n1xccc = 2501.

======================================================= 
 invars1m : enter jdtset= 1

 symlatt: the Bravais lattice is tP (primitive tetragonal)
  xred   is defined in input file
 ingeo: takes atomic coordinates from input array xred

--- !WARNING
src_file: m_ingeo.F90
src_line: 887
message: |
    The tolerance on symmetries =   1.000E-05 is bigger than 1.0e-8.
    In order to avoid spurious effects, the atomic coordinates have been
    symmetrized before storing them in the dataset internal variable.
    So, do not be surprised by the fact that your input variables (xcart, xred, ...)
    do not correspond to the ones echoed by ABINIT, the latter being used to do the calculations.
    In order to avoid this symmetrization (e.g. for specific debugging/development), decrease tolsym to 1.0e-8 or lower.
...


 symlatt: the Bravais lattice is tP (primitive tetragonal)

 symlatt: the Bravais lattice is tP (primitive tetragonal)
 symspgr: spgroup= 129  P4/n m m   (=D4h^7)
 symspgr: optical characteristics = uniaxial
 Optical axis (in reduced coordinates, real space ) :   0   0   1

======================================================= 
 invars1m : enter jdtset= 2

 symlatt: the Bravais lattice is tP (primitive tetragonal)
  xred   is defined in input file
 ingeo: takes atomic coordinates from input array xred

--- !WARNING
src_file: m_ingeo.F90
src_line: 887
message: |
    The tolerance on symmetries =   1.000E-05 is bigger than 1.0e-8.
    In order to avoid spurious effects, the atomic coordinates have been
    symmetrized before storing them in the dataset internal variable.
    So, do not be surprised by the fact that your input variables (xcart, xred, ...)
    do not correspond to the ones echoed by ABINIT, the latter being used to do the calculations.
    In order to avoid this symmetrization (e.g. for specific debugging/development), decrease tolsym to 1.0e-8 or lower.
...


 symlatt: the Bravais lattice is tP (primitive tetragonal)

 symlatt: the Bravais lattice is tP (primitive tetragonal)
 symspgr: spgroup= 129  P4/n m m   (=D4h^7)
 symspgr: optical characteristics = uniaxial
 Optical axis (in reduced coordinates, real space ) :   0   0   1

======================================================= 
 invars1m : enter jdtset= 3

 symlatt: the Bravais lattice is tP (primitive tetragonal)
  xred   is defined in input file
 ingeo: takes atomic coordinates from input array xred

--- !WARNING
src_file: m_ingeo.F90
src_line: 887
message: |
    The tolerance on symmetries =   1.000E-05 is bigger than 1.0e-8.
    In order to avoid spurious effects, the atomic coordinates have been
    symmetrized before storing them in the dataset internal variable.
    So, do not be surprised by the fact that your input variables (xcart, xred, ...)
    do not correspond to the ones echoed by ABINIT, the latter being used to do the calculations.
    In order to avoid this symmetrization (e.g. for specific debugging/development), decrease tolsym to 1.0e-8 or lower.
...


 symlatt: the Bravais lattice is tP (primitive tetragonal)

 symlatt: the Bravais lattice is tP (primitive tetragonal)
 symspgr: spgroup= 129  P4/n m m   (=D4h^7)
 symspgr: optical characteristics = uniaxial
 Optical axis (in reduced coordinates, real space ) :   0   0   1

======================================================= 
 invars1m : enter jdtset= 4

 symlatt: the Bravais lattice is tP (primitive tetragonal)
  xred   is defined in input file
 ingeo: takes atomic coordinates from input array xred

--- !WARNING
src_file: m_ingeo.F90
src_line: 887
message: |
    The tolerance on symmetries =   1.000E-05 is bigger than 1.0e-8.
    In order to avoid spurious effects, the atomic coordinates have been
    symmetrized before storing them in the dataset internal variable.
    So, do not be surprised by the fact that your input variables (xcart, xred, ...)
    do not correspond to the ones echoed by ABINIT, the latter being used to do the calculations.
    In order to avoid this symmetrization (e.g. for specific debugging/development), decrease tolsym to 1.0e-8 or lower.
...


 symlatt: the Bravais lattice is tP (primitive tetragonal)

 symlatt: the Bravais lattice is tP (primitive tetragonal)
 symspgr: spgroup= 129  P4/n m m   (=D4h^7)
 symspgr: optical characteristics = uniaxial
 Optical axis (in reduced coordinates, real space ) :   0   0   1

======================================================= 
 invars1m : enter jdtset= 5

 symlatt: the Bravais lattice is tP (primitive tetragonal)
  xred   is defined in input file
 ingeo: takes atomic coordinates from input array xred

--- !WARNING
src_file: m_ingeo.F90
src_line: 887
message: |
    The tolerance on symmetries =   1.000E-05 is bigger than 1.0e-8.
    In order to avoid spurious effects, the atomic coordinates have been
    symmetrized before storing them in the dataset internal variable.
    So, do not be surprised by the fact that your input variables (xcart, xred, ...)
    do not correspond to the ones echoed by ABINIT, the latter being used to do the calculations.
    In order to avoid this symmetrization (e.g. for specific debugging/development), decrease tolsym to 1.0e-8 or lower.
...


 symlatt: the Bravais lattice is tP (primitive tetragonal)

 symlatt: the Bravais lattice is tP (primitive tetragonal)
 symspgr: spgroup= 129  P4/n m m   (=D4h^7)
 symspgr: optical characteristics = uniaxial
 Optical axis (in reduced coordinates, real space ) :   0   0   1

======================================================= 
 invars1m : enter jdtset= 6

 symlatt: the Bravais lattice is tP (primitive tetragonal)
  xred   is defined in input file
 ingeo: takes atomic coordinates from input array xred

--- !WARNING
src_file: m_ingeo.F90
src_line: 887
message: |
    The tolerance on symmetries =   1.000E-05 is bigger than 1.0e-8.
    In order to avoid spurious effects, the atomic coordinates have been
    symmetrized before storing them in the dataset internal variable.
    So, do not be surprised by the fact that your input variables (xcart, xred, ...)
    do not correspond to the ones echoed by ABINIT, the latter being used to do the calculations.
    In order to avoid this symmetrization (e.g. for specific debugging/development), decrease tolsym to 1.0e-8 or lower.
...


 symlatt: the Bravais lattice is tP (primitive tetragonal)

 symlatt: the Bravais lattice is tP (primitive tetragonal)
 symspgr: spgroup= 129  P4/n m m   (=D4h^7)
 symspgr: optical characteristics = uniaxial
 Optical axis (in reduced coordinates, real space ) :   0   0   1
 For input ecut=  2.250000E+01 best grid ngfft=      36      36     240
       max ecut=  2.468945E+01

 ==== FFT mesh ====
  FFT mesh divisions ........................    36   36  240
  Augmented FFT divisions ...................    37   37  240
  FFT algorithm .............................   112
  FFT cache size ............................    16
 getmpw: optimal value of mpw= 16512
 For input ecut=  2.250000E+01 best grid ngfft=      36      36     240
       max ecut=  2.468945E+01

 ==== FFT mesh ====
  FFT mesh divisions ........................    36   36  240
  Augmented FFT divisions ...................    37   37  240
  FFT algorithm .............................   112
  FFT cache size ............................    16
 getmpw: optimal value of mpw= 16512
 For input ecut=  2.250000E+01 best grid ngfft=      36      36     240
       max ecut=  2.468945E+01

 ==== FFT mesh ====
  FFT mesh divisions ........................    36   36  240
  Augmented FFT divisions ...................    37   37  240
  FFT algorithm .............................   112
  FFT cache size ............................    16
 getmpw: optimal value of mpw= 16512
 For input ecut=  2.250000E+01 best grid ngfft=      36      36     240
       max ecut=  2.468945E+01

 ==== FFT mesh ====
  FFT mesh divisions ........................    36   36  240
  Augmented FFT divisions ...................    37   37  240
  FFT algorithm .............................   112
  FFT cache size ............................    16
 getmpw: optimal value of mpw= 16512
 getmpw: optimal value of mpw= 16512
 For input ecut=  2.250000E+01 best grid ngfft=      36      36     240
       max ecut=  2.468945E+01

 ==== FFT mesh ====
  FFT mesh divisions ........................    36   36  240
  Augmented FFT divisions ...................    37   37  240
  FFT algorithm .............................   112
  FFT cache size ............................    16
 getmpw: optimal value of mpw= 16512
 getmpw: optimal value of mpw= 16512
 For input ecut=  2.250000E+01 best grid ngfft=      36      36     240
       max ecut=  2.468945E+01

 ==== FFT mesh ====
  FFT mesh divisions ........................    36   36  240
  Augmented FFT divisions ...................    37   37  240
  FFT algorithm .............................   112
  FFT cache size ............................    16
 getmpw: optimal value of mpw= 16512
 getmpw: optimal value of mpw= 16512

 DATASET    1 : space group P4/n m m (#129); Bravais tP (primitive tetrag.)

 getdim_nloc : deduce lmnmax  =  18, lnmax  =   6,
                      lmnmaxso=  18, lnmaxso=   6.
memory: analysis of memory needs
================================================================================
 Values of the parameters that define the memory need for DATASET  1.
     intxc =       0    ionmov =       0      iscf =       7    lmnmax =       6
     lnmax =       6     mgfft =     240  mpssoang =       3    mqgrid =   11456
     natom =      16  nloc_mem =       1    nspden =       1   nspinor =       1
    nsppol =       1      nsym =      16    n1xccc =    2501    ntypat =       2
    occopt =       1   xclevel =       2
-    mband =         122        mffmem =           1         mkmem =           1
       mpw =       16512          nfft =      311040          nkpt =           6
================================================================================
P This job should need less than                     134.406 Mbytes of memory.
  Rough estimation (10% accuracy) of disk space for files :
_ WF disk file :    184.432 Mbytes ; DEN or POT disk file :      2.375 Mbytes.
================================================================================

 Biggest array : f_fftgr(disk), with     37.9708 MBytes.
 memana : allocated an array of     37.971 Mbytes, for testing purposes.
 memana: allocated     134.406Mbytes, for testing purposes. 
 The job will continue.

 DATASET    2 : space group P4/n m m (#129); Bravais tP (primitive tetrag.)

 getdim_nloc : deduce lmnmax  =  18, lnmax  =   6,
                      lmnmaxso=  18, lnmaxso=   6.
memory: analysis of memory needs
================================================================================
 Values of the parameters that define the memory need for DATASET  2.
     intxc =       0    ionmov =       0      iscf =      -2    lmnmax =       6
     lnmax =       6     mgfft =     240  mpssoang =       3    mqgrid =   11456
     natom =      16  nloc_mem =       1    nspden =       1   nspinor =       1
    nsppol =       1      nsym =      16    n1xccc =    2501    ntypat =       2
    occopt =       1   xclevel =       2
-    mband =         250        mffmem =           1         mkmem =           1
       mpw =       16512          nfft =      311040          nkpt =           6
================================================================================
P This job should need less than                     126.332 Mbytes of memory.
  Rough estimation (10% accuracy) of disk space for files :
_ WF disk file :    377.932 Mbytes ; DEN or POT disk file :      2.375 Mbytes.
================================================================================

 Biggest array : cg(disk), with     62.9903 MBytes.
 memana : allocated an array of     62.990 Mbytes, for testing purposes.
 memana: allocated     126.332Mbytes, for testing purposes. 
 The job will continue.

 DATASET    3 : space group P4/n m m (#129); Bravais tP (primitive tetrag.)

 getdim_nloc : deduce lmnmax  =  18, lnmax  =   6,
                      lmnmaxso=  18, lnmaxso=   6.
memory: analysis of memory needs
================================================================================
 Values of the parameters that define the memory need for DATASET  3.
     intxc =       0    ionmov =       0      iscf =      -2    lmnmax =       6
     lnmax =       6     mgfft =     240  mpssoang =       3    mqgrid =   11456
     natom =      16  nloc_mem =       1    nspden =       1   nspinor =       1
    nsppol =       1      nsym =      16    n1xccc =    2501    ntypat =       2
    occopt =       1   xclevel =       2
-    mband =         250        mffmem =           1         mkmem =           3
       mpw =       16512          nfft =      311040          nkpt =          18
================================================================================
P This job should need less than                     252.755 Mbytes of memory.
  Rough estimation (10% accuracy) of disk space for files :
_ WF disk file :   1133.791 Mbytes ; DEN or POT disk file :      2.375 Mbytes.
================================================================================

 Biggest array : cg(disk), with    188.9668 MBytes.
 memana : allocated an array of    188.967 Mbytes, for testing purposes.
 memana: allocated     252.755Mbytes, for testing purposes. 
 The job will continue.

 DATASET    4 : space group P4/n m m (#129); Bravais tP (primitive tetrag.)

 getdim_nloc : deduce lmnmax  =  18, lnmax  =   6,
                      lmnmaxso=  18, lnmaxso=   6.
 memorf : analysis of memory needs
================================================================================
 Values of the parameters that define the memory need for DATASET  4 (RF).
     intxc =       0      iscf =      -3    lmnmax =       6     lnmax =       6
     mgfft =     240  mpssoang =       3    mqgrid =   11456     natom =      16
  nloc_mem =       1    nspden =       1   nspinor =       1    nsppol =       1
      nsym =      16    n1xccc =    2501    ntypat =       2    occopt =       1
   xclevel =       2
-    mband =         250        mffmem =           1         mkmem =           3
-   mkqmem =           3        mk1mem =           3           mpw =       16512
      nfft =      311040          nkpt =          18
================================================================================
P This job should need less than                     661.182 Mbytes of memory.
  Rough estimation (10% accuracy) of disk space for files :
_ WF disk file :   1133.791 Mbytes ; DEN or POT disk file :      2.375 Mbytes.
================================================================================

 Biggest array : cg(disk), with    188.9668 MBytes.
 memana : allocated an array of    188.967 Mbytes, for testing purposes.
 memana: allocated     661.182Mbytes, for testing purposes. 
 The job will continue.

 DATASET    5 : space group P4/n m m (#129); Bravais tP (primitive tetrag.)

 getdim_nloc : deduce lmnmax  =  18, lnmax  =   6,
                      lmnmaxso=  18, lnmaxso=   6.
 memorf : analysis of memory needs
================================================================================
 Values of the parameters that define the memory need for DATASET  5 (RF).
     intxc =       0      iscf =      -3    lmnmax =       6     lnmax =       6
     mgfft =     240  mpssoang =       3    mqgrid =   11456     natom =      16
  nloc_mem =       1    nspden =       1   nspinor =       1    nsppol =       1
      nsym =      16    n1xccc =    2501    ntypat =       2    occopt =       1
   xclevel =       2
-    mband =         250        mffmem =           1         mkmem =           3
-   mkqmem =           3        mk1mem =           3           mpw =       16512
      nfft =      311040          nkpt =          18
================================================================================
P This job should need less than                     661.182 Mbytes of memory.
  Rough estimation (10% accuracy) of disk space for files :
_ WF disk file :   1133.791 Mbytes ; DEN or POT disk file :      2.375 Mbytes.
================================================================================

 Biggest array : cg(disk), with    188.9668 MBytes.
 memana : allocated an array of    188.967 Mbytes, for testing purposes.
 memana: allocated     661.182Mbytes, for testing purposes. 
 The job will continue.

 DATASET    6 : space group P4/n m m (#129); Bravais tP (primitive tetrag.)

 getdim_nloc : deduce lmnmax  =  18, lnmax  =   6,
                      lmnmaxso=  18, lnmaxso=   6.
 memorf : analysis of memory needs
================================================================================
 Values of the parameters that define the memory need for DATASET  6 (RF).
     intxc =       0      iscf =      -3    lmnmax =       6     lnmax =       6
     mgfft =     240  mpssoang =       3    mqgrid =   11456     natom =      16
  nloc_mem =       1    nspden =       1   nspinor =       1    nsppol =       1
      nsym =      16    n1xccc =    2501    ntypat =       2    occopt =       1
   xclevel =       2
-    mband =         250        mffmem =           1         mkmem =           3
-   mkqmem =           3        mk1mem =           3           mpw =       16512
      nfft =      311040          nkpt =          18
================================================================================
P This job should need less than                     661.182 Mbytes of memory.
  Rough estimation (10% accuracy) of disk space for files :
_ WF disk file :   1133.791 Mbytes ; DEN or POT disk file :      2.375 Mbytes.
================================================================================

 Biggest array : cg(disk), with    188.9668 MBytes.
 memana : allocated an array of    188.967 Mbytes, for testing purposes.
 memana: allocated     661.182Mbytes, for testing purposes. 
 The job will continue.
--------------------------------------------------------------------------------
------------- Echo of variables that govern the present computation ------------
--------------------------------------------------------------------------------
-
- outvars: echo of selected default values                                      
-   iomode0 =  0 , fftalg0 =112 , wfoptalg0 =  0
-
- outvars: echo of global parameters not present in the input file              
-  max_nthreads =    0
-
 -outvars: echo values of preprocessed input variables --------
 
 These variables are accessible in NetCDF format (Cs2TiI6o_OUT.nc)

            acell      7.7624316804E+00  7.7624316804E+00  7.7624316804E+00 Bohr
              amu      1.18710000E+02  7.89600000E+01
           diemac      1.20000000E+01
             ecut      2.25000000E+01 Hartree
-          fftalg         112
           getden1          0
           getden2          1
           getden3          1
           getden4          0
           getden5          0
           getden6          0
           getwfk1          0
           getwfk2          1
           getwfk3          2
           getwfk4          3
           getwfk5          3
           getwfk6          3
             iscf1          7
             iscf2         -2
             iscf3         -2
             iscf4         -3
             iscf5         -3
             iscf6         -3
              ixc          11
           jdtset        1    2    3    4    5    6
              kpt1     8.33333333E-02  8.33333333E-02  5.00000000E-01
                       2.50000000E-01  8.33333333E-02  5.00000000E-01
                       4.16666667E-01  8.33333333E-02  5.00000000E-01
                       2.50000000E-01  2.50000000E-01  5.00000000E-01
                       4.16666667E-01  2.50000000E-01  5.00000000E-01
                       4.16666667E-01  4.16666667E-01  5.00000000E-01
              kpt2     8.33333333E-02  8.33333333E-02  5.00000000E-01
                       2.50000000E-01  8.33333333E-02  5.00000000E-01
                       4.16666667E-01  8.33333333E-02  5.00000000E-01
                       2.50000000E-01  2.50000000E-01  5.00000000E-01
                       4.16666667E-01  2.50000000E-01  5.00000000E-01
                       4.16666667E-01  4.16666667E-01  5.00000000E-01
              kpt3     8.33333333E-02  8.33333333E-02  5.00000000E-01
                       2.50000000E-01  8.33333333E-02  5.00000000E-01
                       4.16666667E-01  8.33333333E-02  5.00000000E-01
                      -4.16666667E-01  8.33333333E-02  5.00000000E-01
                      -2.50000000E-01  8.33333333E-02  5.00000000E-01
                      -8.33333333E-02  8.33333333E-02  5.00000000E-01
                       8.33333333E-02  2.50000000E-01  5.00000000E-01
                       2.50000000E-01  2.50000000E-01  5.00000000E-01
                       4.16666667E-01  2.50000000E-01  5.00000000E-01
                      -4.16666667E-01  2.50000000E-01  5.00000000E-01
                      -2.50000000E-01  2.50000000E-01  5.00000000E-01
                      -8.33333333E-02  2.50000000E-01  5.00000000E-01
                       8.33333333E-02  4.16666667E-01  5.00000000E-01
                       2.50000000E-01  4.16666667E-01  5.00000000E-01
                       4.16666667E-01  4.16666667E-01  5.00000000E-01
                      -4.16666667E-01  4.16666667E-01  5.00000000E-01
                      -2.50000000E-01  4.16666667E-01  5.00000000E-01
                      -8.33333333E-02  4.16666667E-01  5.00000000E-01
              kpt4     8.33333333E-02  8.33333333E-02  5.00000000E-01
                       2.50000000E-01  8.33333333E-02  5.00000000E-01
                       4.16666667E-01  8.33333333E-02  5.00000000E-01
                      -4.16666667E-01  8.33333333E-02  5.00000000E-01
                      -2.50000000E-01  8.33333333E-02  5.00000000E-01
                      -8.33333333E-02  8.33333333E-02  5.00000000E-01
                       8.33333333E-02  2.50000000E-01  5.00000000E-01
                       2.50000000E-01  2.50000000E-01  5.00000000E-01
                       4.16666667E-01  2.50000000E-01  5.00000000E-01
                      -4.16666667E-01  2.50000000E-01  5.00000000E-01
                      -2.50000000E-01  2.50000000E-01  5.00000000E-01
                      -8.33333333E-02  2.50000000E-01  5.00000000E-01
                       8.33333333E-02  4.16666667E-01  5.00000000E-01
                       2.50000000E-01  4.16666667E-01  5.00000000E-01
                       4.16666667E-01  4.16666667E-01  5.00000000E-01
                      -4.16666667E-01  4.16666667E-01  5.00000000E-01
                      -2.50000000E-01  4.16666667E-01  5.00000000E-01
                      -8.33333333E-02  4.16666667E-01  5.00000000E-01
              kpt5     8.33333333E-02  8.33333333E-02  5.00000000E-01
                       2.50000000E-01  8.33333333E-02  5.00000000E-01
                       4.16666667E-01  8.33333333E-02  5.00000000E-01
                      -4.16666667E-01  8.33333333E-02  5.00000000E-01
                      -2.50000000E-01  8.33333333E-02  5.00000000E-01
                      -8.33333333E-02  8.33333333E-02  5.00000000E-01
                       8.33333333E-02  2.50000000E-01  5.00000000E-01
                       2.50000000E-01  2.50000000E-01  5.00000000E-01
                       4.16666667E-01  2.50000000E-01  5.00000000E-01
                      -4.16666667E-01  2.50000000E-01  5.00000000E-01
                      -2.50000000E-01  2.50000000E-01  5.00000000E-01
                      -8.33333333E-02  2.50000000E-01  5.00000000E-01
                       8.33333333E-02  4.16666667E-01  5.00000000E-01
                       2.50000000E-01  4.16666667E-01  5.00000000E-01
                       4.16666667E-01  4.16666667E-01  5.00000000E-01
                      -4.16666667E-01  4.16666667E-01  5.00000000E-01
                      -2.50000000E-01  4.16666667E-01  5.00000000E-01
                      -8.33333333E-02  4.16666667E-01  5.00000000E-01
              kpt6     8.33333333E-02  8.33333333E-02  5.00000000E-01
                       2.50000000E-01  8.33333333E-02  5.00000000E-01
                       4.16666667E-01  8.33333333E-02  5.00000000E-01
                      -4.16666667E-01  8.33333333E-02  5.00000000E-01
                      -2.50000000E-01  8.33333333E-02  5.00000000E-01
                      -8.33333333E-02  8.33333333E-02  5.00000000E-01
                       8.33333333E-02  2.50000000E-01  5.00000000E-01
                       2.50000000E-01  2.50000000E-01  5.00000000E-01
                       4.16666667E-01  2.50000000E-01  5.00000000E-01
                      -4.16666667E-01  2.50000000E-01  5.00000000E-01
                      -2.50000000E-01  2.50000000E-01  5.00000000E-01
                      -8.33333333E-02  2.50000000E-01  5.00000000E-01
                       8.33333333E-02  4.16666667E-01  5.00000000E-01
                       2.50000000E-01  4.16666667E-01  5.00000000E-01
                       4.16666667E-01  4.16666667E-01  5.00000000E-01
                      -4.16666667E-01  4.16666667E-01  5.00000000E-01
                      -2.50000000E-01  4.16666667E-01  5.00000000E-01
                      -8.33333333E-02  4.16666667E-01  5.00000000E-01
           kptopt1          1
           kptopt2          1
           kptopt3          2
           kptopt4          2
           kptopt5          2
           kptopt6          2
         kptrlatt        6    0    0      0    6    0      0    0    1
          kptrlen      4.65745901E+01
P           mkmem1          1
P           mkmem2          1
P           mkmem3          3
P           mkmem4          3
P           mkmem5          3
P           mkmem6          3
P          mkqmem1          1
P          mkqmem2          1
P          mkqmem3          3
P          mkqmem4          3
P          mkqmem5          3
P          mkqmem6          3
P          mk1mem1          1
P          mk1mem2          1
P          mk1mem3          3
P          mk1mem4          3
P          mk1mem5          3
P          mk1mem6          3
            natom          16
            nband1        122
            nband2        250
            nband3        250
            nband4        250
            nband5        250
            nband6        250
           nbdbuf1          0
           nbdbuf2          2
           nbdbuf3          2
           nbdbuf4          2
           nbdbuf5          2
           nbdbuf6          2
           ndtset           6
            ngfft          36      36     240
             nkpt1          6
             nkpt2          6
             nkpt3         18
             nkpt4         18
             nkpt5         18
             nkpt6         18
            nline1          4
            nline2          4
            nline3          4
            nline4          0
            nline5          0
            nline6          0
             nqpt1          0
             nqpt2          0
             nqpt3          0
             nqpt4          1
             nqpt5          1
             nqpt6          1
            nstep1        400
            nstep2        200
            nstep3        200
            nstep4          1
            nstep5          1
            nstep6          1
             nsym          16
           ntypat           2
              occ1     2.000000  2.000000  2.000000  2.000000  2.000000  2.000000
                       2.000000  2.000000  2.000000  2.000000  2.000000  2.000000
                       2.000000  2.000000  2.000000  2.000000  2.000000  2.000000
                       2.000000  2.000000  2.000000  2.000000  2.000000  2.000000
                       2.000000  2.000000  2.000000  2.000000  2.000000  2.000000
                       2.000000  2.000000  2.000000  2.000000  2.000000  2.000000
                       2.000000  2.000000  2.000000  2.000000  2.000000  2.000000
                       2.000000  2.000000  2.000000  2.000000  2.000000  2.000000
                       2.000000  2.000000  2.000000  2.000000  2.000000  2.000000
                       2.000000  2.000000  2.000000  2.000000  2.000000  2.000000
                       2.000000  2.000000  2.000000  2.000000  2.000000  2.000000
                       2.000000  2.000000  2.000000  2.000000  2.000000  2.000000
                       2.000000  2.000000  2.000000  2.000000  2.000000  2.000000
                       2.000000  2.000000  2.000000  2.000000  2.000000  2.000000
                       2.000000  2.000000  2.000000  2.000000  2.000000  2.000000
                       2.000000  2.000000  2.000000  2.000000  2.000000  2.000000
                       2.000000  2.000000  2.000000  2.000000  2.000000  2.000000
                       2.000000  2.000000  2.000000  2.000000  2.000000  2.000000
                       2.000000  2.000000  2.000000  2.000000  2.000000  2.000000
                       2.000000  2.000000  2.000000  2.000000  2.000000  2.000000
                       0.000000  0.000000
              occ4     2.000000  2.000000  2.000000  2.000000  2.000000  2.000000
                       2.000000  2.000000  2.000000  2.000000  2.000000  2.000000
                       2.000000  2.000000  2.000000  2.000000  2.000000  2.000000
                       2.000000  2.000000  2.000000  2.000000  2.000000  2.000000
                       2.000000  2.000000  2.000000  2.000000  2.000000  2.000000
                       2.000000  2.000000  2.000000  2.000000  2.000000  2.000000
                       2.000000  2.000000  2.000000  2.000000  2.000000  2.000000
                       2.000000  2.000000  2.000000  2.000000  2.000000  2.000000
                       2.000000  2.000000  2.000000  2.000000  2.000000  2.000000
                       2.000000  2.000000  2.000000  2.000000  2.000000  2.000000
                       2.000000  2.000000  2.000000  2.000000  2.000000  2.000000
                       2.000000  2.000000  2.000000  2.000000  2.000000  2.000000
                       2.000000  2.000000  2.000000  2.000000  2.000000  2.000000
                       2.000000  2.000000  2.000000  2.000000  2.000000  2.000000
                       2.000000  2.000000  2.000000  2.000000  2.000000  2.000000
                       2.000000  2.000000  2.000000  2.000000  2.000000  2.000000
                       2.000000  2.000000  2.000000  2.000000  2.000000  2.000000
                       2.000000  2.000000  2.000000  2.000000  2.000000  2.000000
                       2.000000  2.000000  2.000000  2.000000  2.000000  2.000000
                       2.000000  2.000000  2.000000  2.000000  2.000000  2.000000
                       0.000000  0.000000  0.000000  0.000000  0.000000  0.000000
                       0.000000  0.000000  0.000000  0.000000  0.000000  0.000000
                       0.000000  0.000000  0.000000  0.000000  0.000000  0.000000
                       0.000000  0.000000  0.000000  0.000000  0.000000  0.000000
                       0.000000  0.000000  0.000000  0.000000  0.000000  0.000000
                       0.000000  0.000000  0.000000  0.000000  0.000000  0.000000
                       0.000000  0.000000  0.000000  0.000000  0.000000  0.000000
                       0.000000  0.000000  0.000000  0.000000  0.000000  0.000000
                       0.000000  0.000000  0.000000  0.000000  0.000000  0.000000
                       0.000000  0.000000  0.000000  0.000000  0.000000  0.000000
                       0.000000  0.000000  0.000000  0.000000  0.000000  0.000000
                       0.000000  0.000000  0.000000  0.000000  0.000000  0.000000
                       0.000000  0.000000  0.000000  0.000000  0.000000  0.000000
                       0.000000  0.000000  0.000000  0.000000  0.000000  0.000000
                       0.000000  0.000000  0.000000  0.000000  0.000000  0.000000
                       0.000000  0.000000  0.000000  0.000000  0.000000  0.000000
                       0.000000  0.000000  0.000000  0.000000  0.000000  0.000000
                       0.000000  0.000000  0.000000  0.000000  0.000000  0.000000
                       0.000000  0.000000  0.000000  0.000000  0.000000  0.000000
                       0.000000  0.000000  0.000000  0.000000  0.000000  0.000000
                       0.000000  0.000000  0.000000  0.000000  0.000000  0.000000
                       0.000000  0.000000  0.000000  0.000000
              occ5     2.000000  2.000000  2.000000  2.000000  2.000000  2.000000
                       2.000000  2.000000  2.000000  2.000000  2.000000  2.000000
                       2.000000  2.000000  2.000000  2.000000  2.000000  2.000000
                       2.000000  2.000000  2.000000  2.000000  2.000000  2.000000
                       2.000000  2.000000  2.000000  2.000000  2.000000  2.000000
                       2.000000  2.000000  2.000000  2.000000  2.000000  2.000000
                       2.000000  2.000000  2.000000  2.000000  2.000000  2.000000
                       2.000000  2.000000  2.000000  2.000000  2.000000  2.000000
                       2.000000  2.000000  2.000000  2.000000  2.000000  2.000000
                       2.000000  2.000000  2.000000  2.000000  2.000000  2.000000
                       2.000000  2.000000  2.000000  2.000000  2.000000  2.000000
                       2.000000  2.000000  2.000000  2.000000  2.000000  2.000000
                       2.000000  2.000000  2.000000  2.000000  2.000000  2.000000
                       2.000000  2.000000  2.000000  2.000000  2.000000  2.000000
                       2.000000  2.000000  2.000000  2.000000  2.000000  2.000000
                       2.000000  2.000000  2.000000  2.000000  2.000000  2.000000
                       2.000000  2.000000  2.000000  2.000000  2.000000  2.000000
                       2.000000  2.000000  2.000000  2.000000  2.000000  2.000000
                       2.000000  2.000000  2.000000  2.000000  2.000000  2.000000
                       2.000000  2.000000  2.000000  2.000000  2.000000  2.000000
                       0.000000  0.000000  0.000000  0.000000  0.000000  0.000000
                       0.000000  0.000000  0.000000  0.000000  0.000000  0.000000
                       0.000000  0.000000  0.000000  0.000000  0.000000  0.000000
                       0.000000  0.000000  0.000000  0.000000  0.000000  0.000000
                       0.000000  0.000000  0.000000  0.000000  0.000000  0.000000
                       0.000000  0.000000  0.000000  0.000000  0.000000  0.000000
                       0.000000  0.000000  0.000000  0.000000  0.000000  0.000000
                       0.000000  0.000000  0.000000  0.000000  0.000000  0.000000
                       0.000000  0.000000  0.000000  0.000000  0.000000  0.000000
                       0.000000  0.000000  0.000000  0.000000  0.000000  0.000000
                       0.000000  0.000000  0.000000  0.000000  0.000000  0.000000
                       0.000000  0.000000  0.000000  0.000000  0.000000  0.000000
                       0.000000  0.000000  0.000000  0.000000  0.000000  0.000000
                       0.000000  0.000000  0.000000  0.000000  0.000000  0.000000
                       0.000000  0.000000  0.000000  0.000000  0.000000  0.000000
                       0.000000  0.000000  0.000000  0.000000  0.000000  0.000000
                       0.000000  0.000000  0.000000  0.000000  0.000000  0.000000
                       0.000000  0.000000  0.000000  0.000000  0.000000  0.000000
                       0.000000  0.000000  0.000000  0.000000  0.000000  0.000000
                       0.000000  0.000000  0.000000  0.000000  0.000000  0.000000
                       0.000000  0.000000  0.000000  0.000000  0.000000  0.000000
                       0.000000  0.000000  0.000000  0.000000
              occ6     2.000000  2.000000  2.000000  2.000000  2.000000  2.000000
                       2.000000  2.000000  2.000000  2.000000  2.000000  2.000000
                       2.000000  2.000000  2.000000  2.000000  2.000000  2.000000
                       2.000000  2.000000  2.000000  2.000000  2.000000  2.000000
                       2.000000  2.000000  2.000000  2.000000  2.000000  2.000000
                       2.000000  2.000000  2.000000  2.000000  2.000000  2.000000
                       2.000000  2.000000  2.000000  2.000000  2.000000  2.000000
                       2.000000  2.000000  2.000000  2.000000  2.000000  2.000000
                       2.000000  2.000000  2.000000  2.000000  2.000000  2.000000
                       2.000000  2.000000  2.000000  2.000000  2.000000  2.000000
                       2.000000  2.000000  2.000000  2.000000  2.000000  2.000000
                       2.000000  2.000000  2.000000  2.000000  2.000000  2.000000
                       2.000000  2.000000  2.000000  2.000000  2.000000  2.000000
                       2.000000  2.000000  2.000000  2.000000  2.000000  2.000000
                       2.000000  2.000000  2.000000  2.000000  2.000000  2.000000
                       2.000000  2.000000  2.000000  2.000000  2.000000  2.000000
                       2.000000  2.000000  2.000000  2.000000  2.000000  2.000000
                       2.000000  2.000000  2.000000  2.000000  2.000000  2.000000
                       2.000000  2.000000  2.000000  2.000000  2.000000  2.000000
                       2.000000  2.000000  2.000000  2.000000  2.000000  2.000000
                       0.000000  0.000000  0.000000  0.000000  0.000000  0.000000
                       0.000000  0.000000  0.000000  0.000000  0.000000  0.000000
                       0.000000  0.000000  0.000000  0.000000  0.000000  0.000000
                       0.000000  0.000000  0.000000  0.000000  0.000000  0.000000
                       0.000000  0.000000  0.000000  0.000000  0.000000  0.000000
                       0.000000  0.000000  0.000000  0.000000  0.000000  0.000000
                       0.000000  0.000000  0.000000  0.000000  0.000000  0.000000
                       0.000000  0.000000  0.000000  0.000000  0.000000  0.000000
                       0.000000  0.000000  0.000000  0.000000  0.000000  0.000000
                       0.000000  0.000000  0.000000  0.000000  0.000000  0.000000
                       0.000000  0.000000  0.000000  0.000000  0.000000  0.000000
                       0.000000  0.000000  0.000000  0.000000  0.000000  0.000000
                       0.000000  0.000000  0.000000  0.000000  0.000000  0.000000
                       0.000000  0.000000  0.000000  0.000000  0.000000  0.000000
                       0.000000  0.000000  0.000000  0.000000  0.000000  0.000000
                       0.000000  0.000000  0.000000  0.000000  0.000000  0.000000
                       0.000000  0.000000  0.000000  0.000000  0.000000  0.000000
                       0.000000  0.000000  0.000000  0.000000  0.000000  0.000000
                       0.000000  0.000000  0.000000  0.000000  0.000000  0.000000
                       0.000000  0.000000  0.000000  0.000000  0.000000  0.000000
                       0.000000  0.000000  0.000000  0.000000  0.000000  0.000000
                       0.000000  0.000000  0.000000  0.000000
        optdriver1          0
        optdriver2          0
        optdriver3          0
        optdriver4          1
        optdriver5          1
        optdriver6          1
            prtwf1          1
            prtwf2          1
            prtwf3          1
            prtwf4          3
            prtwf5          3
            prtwf6          3
            rfdir1          0       0       0
            rfdir2          0       0       0
            rfdir3          0       0       0
            rfdir4          1       0       0
            rfdir5          0       1       0
            rfdir6          0       0       1
           rfelfd1          0
           rfelfd2          0
           rfelfd3          0
           rfelfd4          2
           rfelfd5          2
           rfelfd6          2
            rprim      1.0000000000E+00  0.0000000000E+00  0.0000000000E+00
                       0.0000000000E+00  1.0000000000E+00  0.0000000000E+00
                       0.0000000000E+00  0.0000000000E+00  6.9113460519E+00
           shiftk      5.00000000E-01  5.00000000E-01  5.00000000E-01
          spgroup         129
           symrel      1  0  0   0  1  0   0  0  1      -1  0  0   0 -1  0   0  0 -1
                      -1  0  0   0  1  0   0  0 -1       1  0  0   0 -1  0   0  0  1
                      -1  0  0   0 -1  0   0  0  1       1  0  0   0  1  0   0  0 -1
                       1  0  0   0 -1  0   0  0 -1      -1  0  0   0  1  0   0  0  1
                       0  1  0   1  0  0   0  0  1       0 -1  0  -1  0  0   0  0 -1
                       0 -1  0   1  0  0   0  0 -1       0  1  0  -1  0  0   0  0  1
                       0 -1  0  -1  0  0   0  0  1       0  1  0   1  0  0   0  0 -1
                       0  1  0  -1  0  0   0  0 -1       0 -1  0   1  0  0   0  0  1
            tnons      0.0000000  0.0000000  0.0000000     0.5000000  0.5000000 -0.0000000
                       0.5000000  0.5000000 -0.0000000     0.0000000  0.0000000  0.0000000
                      -0.0000000  0.0000000  0.0000000     0.5000000  0.5000000 -0.0000000
                       0.5000000  0.5000000 -0.0000000    -0.0000000  0.0000000  0.0000000
                       0.5000000  0.5000000  0.0000000     0.0000000 -0.0000000 -0.0000000
                       0.0000000 -0.0000000 -0.0000000     0.5000000  0.5000000  0.0000000
                       0.5000000  0.5000000  0.0000000     0.0000000  0.0000000 -0.0000000
                       0.0000000  0.0000000 -0.0000000     0.5000000  0.5000000  0.0000000
           tolwfr      1.00000000E-20
            typat      1  1  1  1  1  1  1  1  2  2  2  2  2  2  2  2
           vdw_xc           5
              wtk1       0.11111    0.22222    0.22222    0.11111    0.22222    0.11111
              wtk2       0.11111    0.22222    0.22222    0.11111    0.22222    0.11111
              wtk3       0.05556    0.05556    0.05556    0.05556    0.05556    0.05556
                         0.05556    0.05556    0.05556    0.05556    0.05556    0.05556
                         0.05556    0.05556    0.05556    0.05556    0.05556    0.05556
              wtk4       0.05556    0.05556    0.05556    0.05556    0.05556    0.05556
                         0.05556    0.05556    0.05556    0.05556    0.05556    0.05556
                         0.05556    0.05556    0.05556    0.05556    0.05556    0.05556
              wtk5       0.05556    0.05556    0.05556    0.05556    0.05556    0.05556
                         0.05556    0.05556    0.05556    0.05556    0.05556    0.05556
                         0.05556    0.05556    0.05556    0.05556    0.05556    0.05556
              wtk6       0.05556    0.05556    0.05556    0.05556    0.05556    0.05556
                         0.05556    0.05556    0.05556    0.05556    0.05556    0.05556
                         0.05556    0.05556    0.05556    0.05556    0.05556    0.05556
           xangst      2.0538509643E+00  0.0000000000E+00  4.6664799058E+00
                       0.0000000000E+00  2.0538509643E+00  7.4160839249E+00
                       2.0538509643E+00  0.0000000000E+00  1.0102208464E+01
                       0.0000000000E+00  2.0538509643E+00  1.2851812483E+01
                       2.0538509643E+00  0.0000000000E+00  1.5537937023E+01
                       0.0000000000E+00  2.0538509643E+00  1.8287541042E+01
                       2.0538509643E+00  0.0000000000E+00  2.0973665581E+01
                       0.0000000000E+00  2.0538509643E+00  2.3723269600E+01
                       0.0000000000E+00  2.0538509643E+00  4.6982196457E+00
                       2.0538509643E+00  0.0000000000E+00  7.3843441850E+00
                       0.0000000000E+00  2.0538509643E+00  1.0133948204E+01
                       2.0538509643E+00  0.0000000000E+00  1.2820072743E+01
                       0.0000000000E+00  2.0538509643E+00  1.5569676763E+01
                       2.0538509643E+00  0.0000000000E+00  1.8255801302E+01
                       0.0000000000E+00  2.0538509643E+00  2.1005405321E+01
                       2.0538509643E+00  0.0000000000E+00  2.3691529860E+01
            xcart      3.8812158402E+00  0.0000000000E+00  8.8183690266E+00
                       0.0000000000E+00  3.8812158402E+00  1.4014367597E+01
                       3.8812158402E+00  0.0000000000E+00  1.9090407335E+01
                       0.0000000000E+00  3.8812158402E+00  2.4286405905E+01
                       3.8812158402E+00  0.0000000000E+00  2.9362445643E+01
                       0.0000000000E+00  3.8812158402E+00  3.4558444213E+01
                       3.8812158402E+00  0.0000000000E+00  3.9634483951E+01
                       0.0000000000E+00  3.8812158402E+00  4.4830482521E+01
                       0.0000000000E+00  3.8812158402E+00  8.8783484426E+00
                       3.8812158402E+00  0.0000000000E+00  1.3954388181E+01
                       0.0000000000E+00  3.8812158402E+00  1.9150386751E+01
                       3.8812158402E+00  0.0000000000E+00  2.4226426489E+01
                       0.0000000000E+00  3.8812158402E+00  2.9422425059E+01
                       3.8812158402E+00  0.0000000000E+00  3.4498464797E+01
                       0.0000000000E+00  3.8812158402E+00  3.9694463367E+01
                       3.8812158402E+00  0.0000000000E+00  4.4770503105E+01
             xred      5.0000000000E-01  0.0000000000E+00  1.6437200000E-01
                       0.0000000000E+00  5.0000000000E-01  2.6122400000E-01
                       5.0000000000E-01  0.0000000000E+00  3.5584000000E-01
                       0.0000000000E+00  5.0000000000E-01  4.5269200000E-01
                       5.0000000000E-01  0.0000000000E+00  5.4730800000E-01
                       0.0000000000E+00  5.0000000000E-01  6.4416000000E-01
                       5.0000000000E-01  0.0000000000E+00  7.3877600000E-01
                       0.0000000000E+00  5.0000000000E-01  8.3562800000E-01
                       0.0000000000E+00  5.0000000000E-01  1.6549000000E-01
                       5.0000000000E-01  0.0000000000E+00  2.6010600000E-01
                       0.0000000000E+00  5.0000000000E-01  3.5695800000E-01
                       5.0000000000E-01  0.0000000000E+00  4.5157400000E-01
                       0.0000000000E+00  5.0000000000E-01  5.4842600000E-01
                       5.0000000000E-01  0.0000000000E+00  6.4304200000E-01
                       0.0000000000E+00  5.0000000000E-01  7.3989400000E-01
                       5.0000000000E-01  0.0000000000E+00  8.3451000000E-01
            znucl       50.00000   34.00000

================================================================================

 chkinp: Checking input parameters for consistency, jdtset=   1.

 chkinp: Checking input parameters for consistency, jdtset=   2.

 chkinp: Checking input parameters for consistency, jdtset=   3.

 chkinp: Checking input parameters for consistency, jdtset=   4.

 chkinp: Checking input parameters for consistency, jdtset=   5.

 chkinp: Checking input parameters for consistency, jdtset=   6.
 DATA TYPE INFORMATION: 
 REAL:      Data type name: REAL(DP) 
            Kind value:      8
            Precision:      15
            Smallest nonnegligible quantity relative to 1: 0.22204460E-015
            Smallest positive number:                      0.22250739E-307
            Largest representable number:                  0.17976931E+309
 INTEGER:   Data type name: INTEGER(default) 
            Kind value: 4
            Bit size:   32
            Largest representable number: 2147483647
 LOGICAL:   Data type name: LOGICAL 
            Kind value: 4
 CHARACTER: Data type name: CHARACTER             Kind value: 1

  ==== OpenMP parallelism is OFF ====
 
  ==== Using MPI-2 specifications ==== 
  MPI-IO support is ON
  xmpi_tag_ub ................   2147483647
  xmpi_bsize_ch ..............            1
  xmpi_bsize_int .............            4
  xmpi_bsize_sp ..............            4
  xmpi_bsize_dp ..............            8
  xmpi_bsize_spc .............            8
  xmpi_bsize_dpc .............           16
  xmpio_bsize_frm ............            4
  xmpi_address_kind ..........            8
  xmpi_offset_kind ...........            8
  MPI_WTICK ..................    1.0000000000000001E-009

================================================================================
== DATASET  1 ==================================================================
-   mpi_nproc: 6, omp_nthreads: -1 (-1 if OMP is not activated)


--- !COMMENT
src_file: m_xgScalapack.F90
src_line: 236
message: |
    xgScalapack in auto mode
...


 getdim_nloc : deduce lmnmax  =  18, lnmax  =   6,
                      lmnmaxso=  18, lnmaxso=   6.
 Exchange-correlation functional for the present dataset will be:
  GGA: Perdew-Burke-Ernzerhof functional - ixc=11
 Citation for XC functional:
  J.P.Perdew, K.Burke, M.Ernzerhof, PRL 77, 3865 (1996)

 Unit cell volume ucvol=  3.2326301E+03 bohr^3
 Angles (23,13,12)=  9.00000000E+01  9.00000000E+01  9.00000000E+01 degrees

 getcut: wavevector=  0.0000  0.0000  0.0000  ngfft=  36  36 240
         ecut(hartree)=     22.500   => boxcut(ratio)=   2.09505
- pspini: atom type   1  psp file is ../../../Psps_for_tests/ATOMICDATA_NC/Sn.psp8
- pspatm: opening atomic psp file    ../../../Psps_for_tests/ATOMICDATA_NC/Sn.psp8
- Sn    ONCVPSP  r_core=  2.27  2.62  1.86
- 50.00000  14.00000    150810                znucl, zion, pspdat
    8   11    2    4       600   0.00000      pspcod,pspxc,lmax,lloc,mmax,r2well
    5.99000000000000    6.50000000000000    0.00000000000000   rchrg,fchrg,qchrg
     nproj     2     2     2
     extension_switch     1
  valence charge integrates to:    13.912521222389802     
  pspatm : epsatm=   32.65190642
         --- l  ekb(1:nproj) -->
             0    5.462393    0.682281
             1    4.443814    0.825686
             2   -5.382195   -1.704077
 pspatm: atomic psp has been read  and splines computed

- pspini: atom type   2  psp file is ../../../Psps_for_tests/ATOMICDATA_NC/Se.psp8
- pspatm: opening atomic psp file    ../../../Psps_for_tests/ATOMICDATA_NC/Se.psp8
- Se    ONCVPSP  r_core=  1.82  1.50  1.91
- 34.00000  16.00000    150729                znucl, zion, pspdat
    8   11    2    4       600   0.00000      pspcod,pspxc,lmax,lloc,mmax,r2well
    5.99000000000000    5.00000000000000    0.00000000000000   rchrg,fchrg,qchrg
     nproj     2     2     2
     extension_switch     1
  valence charge integrates to:    15.981819523532332     
  pspatm : epsatm=   29.53325930
         --- l  ekb(1:nproj) -->
             0    8.612261    0.939919
             1    6.984962    1.281898
             2   -9.322521   -3.856218
 pspatm: atomic psp has been read  and splines computed

   1.19395518E+05                                ecore*ucvol(ha*bohr**3)
 ==== Info on pseudopotentials ====
  Norm-conserving pseudopotentials
  Number of pseudopotentials ..    2
  Number of types of atoms   ..    2
  Scalar calculation (no spin-orbit term)
  Nonlocal part applied using Legendre polynomials
  Max number of non-local projectors over l and type   2
  Highest angular momentum +1 .......   3
  Max number of (l,n)   components ..   6
  Max number of (l,m,n) components ..   6

 Pseudo-Core Charge Info: 
   Number of radial points for pseudo-core charge .. 2501
   XC core-correction treatment (optnlxccc) ........    1
   Radius for pseudo-core charge for each type ..... 

  - Atom type    1 has pseudo-core radius ..  5.9900
  - Atom type    2 has pseudo-core radius ..  5.9900

 Info on the Q-grid used for form factors in spline form: 
   Number of q-points for radial functions ffspl ..  11456
   Number of q-points for vlspl ...................  11456
   vloc is computed in Reciprocal Space
   model core charge treated in real-space

  XC functional for type 1 is 11
  Pseudo valence available: yes
  XC functional for type 2 is 11
  Pseudo valence available: yes

 wfconv:   122 bands initialized randomly with npw= 16512, for ikpt=     1
_setup2: Arith. and geom. avg. npw (full set) are   16479.778   16479.768
 initro: for itypat=  1, take pseudo charge density from pp file
 initro: for itypat=  2, take pseudo charge density from pp file

================================================================================

 getcut: wavevector=  0.0000  0.0000  0.0000  ngfft=  36  36 240
         ecut(hartree)=     22.500   => boxcut(ratio)=   2.09505

 1/G**2 cut-off applied in the following step : cutoff-mode = CRYSTAL

  --------------------------------------------------------------
  Van der Waals DFT-D2 semi-empirical dispersion potential added
      with following parameters:
      Specie  C6 (J.nm^6.mol^-1)  R0 (Ang)
      ------------------------------------
         Sn           38.71         1.804
         Se           12.64         1.771

      Scaling factor   =   0.75
      Damping parameter=  20.00
      Cut-off radius   = 130.92 bohr

      Number of pairs contributing =   396798
      DFT-D2 energy contribution   =   -2.25983E-01 Ha
  --------------------------------------------------------------


 1/G**2 cut-off applied in the following step : cutoff-mode = CRYSTAL

 1/G**2 cut-off applied in the following step : cutoff-mode = CRYSTAL

--- !WARNING
src_file: m_drivexc.F90
src_line: 707
message: |
    Density went too small (lower than xc_denpos) at 13906 points
    and was set to xc_denpos =   1.00E-14. Lowest was  -0.77E-03.
    Likely due to too low boxcut or too low ecut for pseudopotential core charge.
...


 ITER STEP NUMBER     1
 vtorho: nnsclo_now = 2, note that nnsclo, dbl_nnsclo, istep= 0 0 1
 Total charge density [el/Bohr^3]
      Maximum=    2.1322E+00  at reduced coord.    0.0000    0.5556    0.5375
      Minimum=    2.7628E-03  at reduced coord.    0.1111    0.3889    0.0333
   Integrated=    2.4000E+02

 1/G**2 cut-off applied in the following step : cutoff-mode = CRYSTAL
 ETOT  1  -1559.2192245191    -1.559E+03 8.503E-01 3.291E+05
 scprqt: <Vxc>= -3.6566770E-01 hartree

 Simple mixing update:
  residual square of the potential:    5560.5679783979976
 scfcv_core: previous iteration took 01:06 [minutes]

 ITER STEP NUMBER     2
 vtorho: nnsclo_now = 2, note that nnsclo, dbl_nnsclo, istep= 0 0 2
 Total charge density [el/Bohr^3]
      Maximum=    2.2428E+00  at reduced coord.    0.9722    0.5556    0.5583
      Minimum=    1.6025E-05  at reduced coord.    0.4444    0.0556    0.0292
   Integrated=    2.4000E+02
 ETOT  2  -1577.7528068565    -1.853E+01 3.299E-02 2.053E+06
 scprqt: <Vxc>= -3.1520713E-01 hartree

 Pulay update with  1 previous iterations:
 mixing of old trial potential: alpha(m:m-4)=  0.317      0.683
 scfcv_core: previous iteration took 01:04 [minutes]

 ITER STEP NUMBER     3
 vtorho: nnsclo_now = 1, note that nnsclo, dbl_nnsclo, istep= 0 0 3
 Total charge density [el/Bohr^3]
      Maximum=    2.2359E+00  at reduced coord.    0.5556    0.9444    0.8417
      Minimum=    9.8736E-06  at reduced coord.    0.0000    0.0000    0.0000
   Integrated=    2.4000E+02
 ETOT  3  -1590.8616419857    -1.311E+01 3.994E-02 5.710E+03
 scprqt: <Vxc>= -3.1804557E-01 hartree

 Pulay update with  2 previous iterations:
 mixing of old trial potential: alpha(m:m-4)=  0.548      0.122      0.330
 scfcv_core: previous iteration took 33.01 [s]

 ITER STEP NUMBER     4
 vtorho: nnsclo_now = 1, note that nnsclo, dbl_nnsclo, istep= 0 0 4
 Total charge density [el/Bohr^3]
      Maximum=    2.2172E+00  at reduced coord.    0.5556    0.9444    0.8417
      Minimum=    7.1353E-06  at reduced coord.    0.3889    0.0000    0.0042
   Integrated=    2.4000E+02
 ETOT  4  -1591.3762464486    -5.146E-01 6.460E-03 4.764E+03
 scprqt: <Vxc>= -3.2105708E-01 hartree

 Pulay update with  3 previous iterations:
 mixing of old trial potential: alpha(m:m-4)=  0.872     -0.133      0.765E-01  0.185
 scfcv_core: previous iteration took 32.78 [s]

 ITER STEP NUMBER     5
 vtorho: nnsclo_now = 1, note that nnsclo, dbl_nnsclo, istep= 0 0 5
 Total charge density [el/Bohr^3]
      Maximum=    2.2165E+00  at reduced coord.    0.5556    0.9444    0.8417
      Minimum=    7.0965E-06  at reduced coord.    0.3889    0.0000    0.0042
   Integrated=    2.4000E+02
 ETOT  5  -1591.4807532748    -1.045E-01 1.626E-03 2.158E+03
 scprqt: <Vxc>= -3.2226311E-01 hartree

 Pulay update with  4 previous iterations:
 mixing of old trial potential: alpha(m:m-4)=  0.929      0.106     -0.150      0.178E-01  0.972E-01
 scfcv_core: previous iteration took 32.87 [s]

 ITER STEP NUMBER     6
 vtorho: nnsclo_now = 1, note that nnsclo, dbl_nnsclo, istep= 0 0 6
 Total charge density [el/Bohr^3]
      Maximum=    2.2121E+00  at reduced coord.    0.0000    0.5833    0.7458
      Minimum=    7.1634E-06  at reduced coord.    0.3889    0.0000    0.0042
   Integrated=    2.4000E+02
 ETOT  6  -1591.4901239676    -9.371E-03 2.113E-03 6.116E+03
 scprqt: <Vxc>= -3.2335028E-01 hartree

 Pulay update with  5 previous iterations:
 mixing of old trial potential: alpha(m:m-4)=  0.718      0.262     -0.443E-02 -0.369E-01 -0.127E-01
 scfcv_core: previous iteration took 32.91 [s]

 ITER STEP NUMBER     7
 vtorho: nnsclo_now = 1, note that nnsclo, dbl_nnsclo, istep= 0 0 7
 Total charge density [el/Bohr^3]
      Maximum=    2.2117E+00  at reduced coord.    0.0000    0.5556    0.5375
      Minimum=    7.2859E-06  at reduced coord.    0.3889    0.0000    0.0042
   Integrated=    2.4000E+02
 ETOT  7  -1591.4979778062    -7.854E-03 4.302E-04 5.415E+03
 scprqt: <Vxc>= -3.2378144E-01 hartree

 Pulay update with  6 previous iterations:
 mixing of old trial potential: alpha(m:m-4)=   1.07     -0.266      0.149      0.377E-02  0.224E-02
 scfcv_core: previous iteration took 32.96 [s]

 ITER STEP NUMBER     8
 vtorho: nnsclo_now = 1, note that nnsclo, dbl_nnsclo, istep= 0 0 8
 Total charge density [el/Bohr^3]
      Maximum=    2.2112E+00  at reduced coord.    0.0000    0.5833    0.7458
      Minimum=    7.4218E-06  at reduced coord.    0.3889    0.0000    0.0042
   Integrated=    2.4000E+02
 ETOT  8  -1591.5061875688    -8.210E-03 3.695E-04 3.965E+03
 scprqt: <Vxc>= -3.2407859E-01 hartree

 Pulay update with  7 previous iterations:
 mixing of old trial potential: alpha(m:m-4)=   1.19      0.212E-02 -0.173      0.178E-01 -0.102
 scfcv_core: previous iteration took 32.92 [s]

 ITER STEP NUMBER     9
 vtorho: nnsclo_now = 1, note that nnsclo, dbl_nnsclo, istep= 0 0 9
 Total charge density [el/Bohr^3]
      Maximum=    2.2109E+00  at reduced coord.    0.0000    0.5556    0.5375
      Minimum=    7.7022E-06  at reduced coord.    0.0000    0.0000    0.0000
   Integrated=    2.4000E+02
 ETOT  9  -1591.5170737439    -1.089E-02 3.710E-04 2.129E+03
 scprqt: <Vxc>= -3.2454266E-01 hartree

 Pulay update with  7 previous iterations:
 mixing of old trial potential: alpha(m:m-4)=  0.627      0.500      0.222     -0.106     -0.108
 scfcv_core: previous iteration took 32.94 [s]

 ITER STEP NUMBER    10
 vtorho: nnsclo_now = 1, note that nnsclo, dbl_nnsclo, istep= 0 0 10
 Total charge density [el/Bohr^3]
      Maximum=    2.2100E+00  at reduced coord.    0.0000    0.5556    0.5375
      Minimum=    8.1004E-06  at reduced coord.    0.0000    0.0000    0.0000
   Integrated=    2.4000E+02
 ETOT 10  -1591.5202599311    -3.186E-03 2.693E-04 1.636E+03
 scprqt: <Vxc>= -3.2519927E-01 hartree

 Pulay update with  7 previous iterations:
 mixing of old trial potential: alpha(m:m-4)=  0.611      0.295      0.261      0.365     -0.933
 scfcv_core: previous iteration took 32.42 [s]

 ITER STEP NUMBER    11
 vtorho: nnsclo_now = 1, note that nnsclo, dbl_nnsclo, istep= 0 0 11
 Total charge density [el/Bohr^3]
      Maximum=    2.2097E+00  at reduced coord.    0.0000    0.5833    0.7458
      Minimum=    8.0042E-06  at reduced coord.    0.0000    0.0000    0.0000
   Integrated=    2.4000E+02
 ETOT 11  -1591.5276505562    -7.391E-03 8.225E-04 7.044E+01
 scprqt: <Vxc>= -3.2518434E-01 hartree

 Pulay update with  7 previous iterations:
 mixing of old trial potential: alpha(m:m-4)=   1.07     -0.490      0.337      0.294      0.505
 scfcv_core: previous iteration took 33.03 [s]

 ITER STEP NUMBER    12
 vtorho: nnsclo_now = 1, note that nnsclo, dbl_nnsclo, istep= 0 0 12
 Total charge density [el/Bohr^3]
      Maximum=    2.2100E+00  at reduced coord.    0.0000    0.5556    0.5375
      Minimum=    8.3325E-06  at reduced coord.    0.0000    0.0000    0.0000
   Integrated=    2.4000E+02
 ETOT 12  -1591.5279020061    -2.514E-04 2.602E-04 1.155E+02
 scprqt: <Vxc>= -3.2530560E-01 hartree

 Pulay update with  7 previous iterations:
 mixing of old trial potential: alpha(m:m-4)=  0.742      0.571     -0.839      0.533      0.536E-01
 scfcv_core: previous iteration took 32.98 [s]

 ITER STEP NUMBER    13
 vtorho: nnsclo_now = 1, note that nnsclo, dbl_nnsclo, istep= 0 0 13
 Total charge density [el/Bohr^3]
      Maximum=    2.2098E+00  at reduced coord.    0.0000    0.5833    0.7458
      Minimum=    8.4231E-06  at reduced coord.    0.0000    0.0000    0.0000
   Integrated=    2.4000E+02
 ETOT 13  -1591.5281712551    -2.692E-04 3.532E-04 4.996E+01
 scprqt: <Vxc>= -3.2539084E-01 hartree

 Pulay update with  7 previous iterations:
 mixing of old trial potential: alpha(m:m-4)=   1.03     -0.434      0.545     -0.514      0.277
 scfcv_core: previous iteration took 32.93 [s]

 ITER STEP NUMBER    14
 vtorho: nnsclo_now = 1, note that nnsclo, dbl_nnsclo, istep= 0 0 14
 Total charge density [el/Bohr^3]
      Maximum=    2.2098E+00  at reduced coord.    0.0000    0.5833    0.7458
      Minimum=    8.3640E-06  at reduced coord.    0.0000    0.0000    0.0000
   Integrated=    2.4000E+02
 ETOT 14  -1591.5278668583     3.044E-04 2.234E-04 1.064E+02
 scprqt: <Vxc>= -3.2536409E-01 hartree

 Pulay update with  7 previous iterations:
 mixing of old trial potential: alpha(m:m-4)=   2.22       1.21      -1.74     -0.269     -0.335
 scfcv_core: previous iteration took 33.03 [s]

 ITER STEP NUMBER    15
 vtorho: nnsclo_now = 1, note that nnsclo, dbl_nnsclo, istep= 0 0 15
 Total charge density [el/Bohr^3]
      Maximum=    2.2097E+00  at reduced coord.    0.5556    0.9444    0.8417
      Minimum=    8.8906E-06  at reduced coord.    0.0000    0.0000    0.0000
   Integrated=    2.4000E+02
 ETOT 15  -1591.5283315726    -4.647E-04 1.025E-04 5.855E+00
 scprqt: <Vxc>= -3.2553343E-01 hartree

 Pulay update with  7 previous iterations:
 mixing of old trial potential: alpha(m:m-4)=  0.507      0.435      0.266E-01  0.178      0.561E-01
 scfcv_core: previous iteration took 32.98 [s]

 ITER STEP NUMBER    16
 vtorho: nnsclo_now = 1, note that nnsclo, dbl_nnsclo, istep= 0 0 16
 Total charge density [el/Bohr^3]
      Maximum=    2.2098E+00  at reduced coord.    0.5556    0.9444    0.8417
      Minimum=    8.7011E-06  at reduced coord.    0.0000    0.0000    0.0000
   Integrated=    2.4000E+02
 ETOT 16  -1591.5283122979     1.927E-05 1.556E-04 7.357E+00
 scprqt: <Vxc>= -3.2549351E-01 hartree

 Pulay update with  7 previous iterations:
 mixing of old trial potential: alpha(m:m-4)=  0.918     -0.982E-01  0.663     -0.294     -0.718E-01
 scfcv_core: previous iteration took 32.98 [s]

 ITER STEP NUMBER    17
 vtorho: nnsclo_now = 1, note that nnsclo, dbl_nnsclo, istep= 0 0 17
 Total charge density [el/Bohr^3]
      Maximum=    2.2098E+00  at reduced coord.    0.5556    0.9444    0.8417
      Minimum=    8.8360E-06  at reduced coord.    0.0000    0.0000    0.0000
   Integrated=    2.4000E+02
 ETOT 17  -1591.5283427500    -3.045E-05 2.785E-05 7.967E-01
 scprqt: <Vxc>= -3.2553156E-01 hartree

 Pulay update with  7 previous iterations:
 mixing of old trial potential: alpha(m:m-4)=  0.951      0.131     -0.393       1.07      0.317E-01
 scfcv_core: previous iteration took 32.96 [s]

 ITER STEP NUMBER    18
 vtorho: nnsclo_now = 1, note that nnsclo, dbl_nnsclo, istep= 0 0 18
 Total charge density [el/Bohr^3]
      Maximum=    2.2098E+00  at reduced coord.    0.5556    0.9444    0.8417
      Minimum=    8.8252E-06  at reduced coord.    0.0000    0.0000    0.0000
   Integrated=    2.4000E+02
 ETOT 18  -1591.5283339322     8.818E-06 9.439E-05 4.897E-01
 scprqt: <Vxc>= -3.2554010E-01 hartree

 Pulay update with  7 previous iterations:
 mixing of old trial potential: alpha(m:m-4)=   1.12      0.235      0.351E-01 -0.478      0.745
 scfcv_core: previous iteration took 32.93 [s]

 ITER STEP NUMBER    19
 vtorho: nnsclo_now = 1, note that nnsclo, dbl_nnsclo, istep= 0 0 19
 Total charge density [el/Bohr^3]
      Maximum=    2.2098E+00  at reduced coord.    0.5556    0.9444    0.8417
      Minimum=    8.9109E-06  at reduced coord.    0.0000    0.0000    0.0000
   Integrated=    2.4000E+02
 ETOT 19  -1591.5283450550    -1.112E-05 8.802E-06 4.340E-01
 scprqt: <Vxc>= -3.2556214E-01 hartree

 Pulay update with  7 previous iterations:
 mixing of old trial potential: alpha(m:m-4)=   1.29     -0.244     -0.406      0.614     -0.223
 scfcv_core: previous iteration took 33.00 [s]

 ITER STEP NUMBER    20
 vtorho: nnsclo_now = 1, note that nnsclo, dbl_nnsclo, istep= 0 0 20
 Total charge density [el/Bohr^3]
      Maximum=    2.2097E+00  at reduced coord.    0.0000    0.5833    0.7458
      Minimum=    8.8881E-06  at reduced coord.    0.0000    0.0000    0.0000
   Integrated=    2.4000E+02
 ETOT 20  -1591.5283474312    -2.376E-06 5.015E-05 2.042E-01
 scprqt: <Vxc>= -3.2556135E-01 hartree

 Pulay update with  7 previous iterations:
 mixing of old trial potential: alpha(m:m-4)=   1.03      0.267     -0.231     -0.171      0.160
 scfcv_core: previous iteration took 32.99 [s]

 ITER STEP NUMBER    21
 vtorho: nnsclo_now = 1, note that nnsclo, dbl_nnsclo, istep= 0 0 21
 Total charge density [el/Bohr^3]
      Maximum=    2.2097E+00  at reduced coord.    0.0000    0.5833    0.7458
      Minimum=    8.9219E-06  at reduced coord.    0.0000    0.0000    0.0000
   Integrated=    2.4000E+02
 ETOT 21  -1591.5283483478    -9.166E-07 4.263E-06 2.150E-02
 scprqt: <Vxc>= -3.2556950E-01 hartree

 Pulay update with  7 previous iterations:
 mixing of old trial potential: alpha(m:m-4)=   1.04      0.784E-01 -0.168      0.186E-01  0.304E-01
 scfcv_core: previous iteration took 33.02 [s]

 ITER STEP NUMBER    22
 vtorho: nnsclo_now = 1, note that nnsclo, dbl_nnsclo, istep= 0 0 22
 Total charge density [el/Bohr^3]
      Maximum=    2.2097E+00  at reduced coord.    0.5556    0.9444    0.8417
      Minimum=    8.9100E-06  at reduced coord.    0.0000    0.0000    0.0000
   Integrated=    2.4000E+02
 ETOT 22  -1591.5283484288    -8.097E-08 2.430E-05 1.710E-03
 scprqt: <Vxc>= -3.2556645E-01 hartree

 Pulay update with  7 previous iterations:
 mixing of old trial potential: alpha(m:m-4)=  0.728      0.225      0.758E-01 -0.439E-01  0.144E-01
 scfcv_core: previous iteration took 32.86 [s]

 ITER STEP NUMBER    23
 vtorho: nnsclo_now = 1, note that nnsclo, dbl_nnsclo, istep= 0 0 23
 Total charge density [el/Bohr^3]
      Maximum=    2.2097E+00  at reduced coord.    0.5556    0.9444    0.8417
      Minimum=    8.9102E-06  at reduced coord.    0.0000    0.0000    0.0000
   Integrated=    2.4000E+02
 ETOT 23  -1591.5283484614    -3.260E-08 2.395E-06 4.606E-04
 scprqt: <Vxc>= -3.2556614E-01 hartree

 Pulay update with  7 previous iterations:
 mixing of old trial potential: alpha(m:m-4)=  0.906      0.823E-01  0.265E-01 -0.158E-01 -0.210E-02
 scfcv_core: previous iteration took 32.87 [s]

 ITER STEP NUMBER    24
 vtorho: nnsclo_now = 1, note that nnsclo, dbl_nnsclo, istep= 0 0 24
 Total charge density [el/Bohr^3]
      Maximum=    2.2097E+00  at reduced coord.    0.5556    0.9444    0.8417
      Minimum=    8.9110E-06  at reduced coord.    0.0000    0.0000    0.0000
   Integrated=    2.4000E+02
 ETOT 24  -1591.5283484616    -2.490E-10 1.157E-05 3.444E-04
 scprqt: <Vxc>= -3.2556624E-01 hartree

 Pulay update with  7 previous iterations:
 mixing of old trial potential: alpha(m:m-4)=   1.26     -0.112     -0.975E-01 -0.968E-02 -0.466E-01
 scfcv_core: previous iteration took 32.92 [s]

 ITER STEP NUMBER    25
 vtorho: nnsclo_now = 1, note that nnsclo, dbl_nnsclo, istep= 0 0 25
 Total charge density [el/Bohr^3]
      Maximum=    2.2097E+00  at reduced coord.    0.5556    0.9444    0.8417
      Minimum=    8.9119E-06  at reduced coord.    0.0000    0.0000    0.0000
   Integrated=    2.4000E+02
 ETOT 25  -1591.5283484633    -1.640E-09 1.341E-06 2.258E-05
 scprqt: <Vxc>= -3.2556636E-01 hartree

 Pulay update with  7 previous iterations:
 mixing of old trial potential: alpha(m:m-4)=   1.01      0.212     -0.169     -0.377E-01 -0.837E-02
 scfcv_core: previous iteration took 32.96 [s]

 ITER STEP NUMBER    26
 vtorho: nnsclo_now = 1, note that nnsclo, dbl_nnsclo, istep= 0 0 26
 Total charge density [el/Bohr^3]
      Maximum=    2.2097E+00  at reduced coord.    0.5556    0.9444    0.8417
      Minimum=    8.9123E-06  at reduced coord.    0.0000    0.0000    0.0000
   Integrated=    2.4000E+02
 ETOT 26  -1591.5283484639    -6.607E-10 5.471E-06 6.348E-07
 scprqt: <Vxc>= -3.2556642E-01 hartree

 Pulay update with  7 previous iterations:
 mixing of old trial potential: alpha(m:m-4)=   1.04      0.824E-02 -0.845E-01  0.426E-01 -0.458E-02
 scfcv_core: previous iteration took 32.97 [s]

 ITER STEP NUMBER    27
 vtorho: nnsclo_now = 1, note that nnsclo, dbl_nnsclo, istep= 0 0 27
 Total charge density [el/Bohr^3]
      Maximum=    2.2097E+00  at reduced coord.    0.5556    0.9444    0.8417
      Minimum=    8.9123E-06  at reduced coord.    0.0000    0.0000    0.0000
   Integrated=    2.4000E+02
 ETOT 27  -1591.5283484639     2.956E-11 7.518E-07 1.927E-06
 scprqt: <Vxc>= -3.2556641E-01 hartree

 Pulay update with  7 previous iterations:
 mixing of old trial potential: alpha(m:m-4)=  0.656      0.424     -0.654E-01 -0.273E-01  0.184E-01
 scfcv_core: previous iteration took 32.98 [s]

 ITER STEP NUMBER    28
 vtorho: nnsclo_now = 1, note that nnsclo, dbl_nnsclo, istep= 0 0 28
 Total charge density [el/Bohr^3]
      Maximum=    2.2097E+00  at reduced coord.    0.5556    0.9444    0.8417
      Minimum=    8.9123E-06  at reduced coord.    0.0000    0.0000    0.0000
   Integrated=    2.4000E+02
 ETOT 28  -1591.5283484637     2.342E-10 2.578E-06 2.365E-07
 scprqt: <Vxc>= -3.2556643E-01 hartree

 Pulay update with  7 previous iterations:
 mixing of old trial potential: alpha(m:m-4)=   1.16     -0.772E-01 -0.287E-02 -0.908E-01 -0.149E-01
 scfcv_core: previous iteration took 32.96 [s]

 ITER STEP NUMBER    29
 vtorho: nnsclo_now = 1, note that nnsclo, dbl_nnsclo, istep= 0 0 29
 Total charge density [el/Bohr^3]
      Maximum=    2.2097E+00  at reduced coord.    0.5556    0.9444    0.8417
      Minimum=    8.9124E-06  at reduced coord.    0.0000    0.0000    0.0000
   Integrated=    2.4000E+02
 ETOT 29  -1591.5283484638    -9.868E-11 4.219E-07 8.684E-08
 scprqt: <Vxc>= -3.2556644E-01 hartree

 Pulay update with  7 previous iterations:
 mixing of old trial potential: alpha(m:m-4)=   1.36     -0.468      0.410E-01  0.635E-01  0.168E-01
 scfcv_core: previous iteration took 32.97 [s]

 ITER STEP NUMBER    30
 vtorho: nnsclo_now = 1, note that nnsclo, dbl_nnsclo, istep= 0 0 30
 Total charge density [el/Bohr^3]
      Maximum=    2.2097E+00  at reduced coord.    0.5556    0.9444    0.8417
      Minimum=    8.9124E-06  at reduced coord.    0.0000    0.0000    0.0000
   Integrated=    2.4000E+02
 ETOT 30  -1591.5283484636     1.805E-10 1.213E-06 4.388E-10
 scprqt: <Vxc>= -3.2556644E-01 hartree

 Pulay update with  7 previous iterations:
 mixing of old trial potential: alpha(m:m-4)=  0.620      0.554     -0.220      0.254E-01  0.226E-01
 scfcv_core: previous iteration took 32.95 [s]

 ITER STEP NUMBER    31
 vtorho: nnsclo_now = 1, note that nnsclo, dbl_nnsclo, istep= 0 0 31
 Total charge density [el/Bohr^3]
      Maximum=    2.2097E+00  at reduced coord.    0.5556    0.9444    0.8417
      Minimum=    8.9124E-06  at reduced coord.    0.0000    0.0000    0.0000
   Integrated=    2.4000E+02
 ETOT 31  -1591.5283484635     4.911E-11 2.370E-07 5.146E-11
 scprqt: <Vxc>= -3.2556644E-01 hartree

 Pulay update with  7 previous iterations:
 mixing of old trial potential: alpha(m:m-4)=  0.185      0.468      0.505     -0.199      0.228E-01
 scfcv_core: previous iteration took 32.97 [s]

 ITER STEP NUMBER    32
 vtorho: nnsclo_now = 1, note that nnsclo, dbl_nnsclo, istep= 0 0 32
 Total charge density [el/Bohr^3]
      Maximum=    2.2097E+00  at reduced coord.    0.5556    0.9444    0.8417
      Minimum=    8.9124E-06  at reduced coord.    0.0000    0.0000    0.0000
   Integrated=    2.4000E+02
 ETOT 32  -1591.5283484639    -3.365E-10 5.702E-07 1.115E-10
 scprqt: <Vxc>= -3.2556644E-01 hartree

 Pulay update with  7 previous iterations:
 mixing of old trial potential: alpha(m:m-4)=   3.19      -1.92     -0.335      0.110     -0.479E-01
 scfcv_core: previous iteration took 27.75 [s]

 ITER STEP NUMBER    33
 vtorho: nnsclo_now = 1, note that nnsclo, dbl_nnsclo, istep= 0 0 33
 Total charge density [el/Bohr^3]
      Maximum=    2.2097E+00  at reduced coord.    0.5556    0.9444    0.8417
      Minimum=    8.9124E-06  at reduced coord.    0.0000    0.0000    0.0000
   Integrated=    2.4000E+02
 ETOT 33  -1591.5283484637     1.578E-10 1.333E-07 9.477E-12
 scprqt: <Vxc>= -3.2556644E-01 hartree

 Pulay update with  7 previous iterations:
 mixing of old trial potential: alpha(m:m-4)=  0.732       1.72      -1.27     -0.194      0.671E-03
 scfcv_core: previous iteration took 32.97 [s]

 ITER STEP NUMBER    34
 vtorho: nnsclo_now = 1, note that nnsclo, dbl_nnsclo, istep= 0 0 34
 Total charge density [el/Bohr^3]
      Maximum=    2.2097E+00  at reduced coord.    0.5556    0.9444    0.8417
      Minimum=    8.9124E-06  at reduced coord.    0.0000    0.0000    0.0000
   Integrated=    2.4000E+02
 ETOT 34  -1591.5283484637    -3.001E-11 2.681E-07 2.156E-11
 scprqt: <Vxc>= -3.2556644E-01 hartree

 Pulay update with  7 previous iterations:
 mixing of old trial potential: alpha(m:m-4)=  0.792      0.600E-01  0.919     -0.696     -0.736E-01
 scfcv_core: previous iteration took 31.58 [s]

 ITER STEP NUMBER    35
 vtorho: nnsclo_now = 1, note that nnsclo, dbl_nnsclo, istep= 0 0 35
 Total charge density [el/Bohr^3]
      Maximum=    2.2097E+00  at reduced coord.    0.5556    0.9444    0.8417
      Minimum=    8.9124E-06  at reduced coord.    0.0000    0.0000    0.0000
   Integrated=    2.4000E+02
 ETOT 35  -1591.5283484634     3.247E-10 7.501E-08 4.346E-12
 scprqt: <Vxc>= -3.2556644E-01 hartree

 Pulay update with  7 previous iterations:
 mixing of old trial potential: alpha(m:m-4)=  0.957      0.136     -0.185      0.361     -0.274
[...]
                       2.000000  2.000000  2.000000  2.000000  2.000000  2.000000
                       2.000000  2.000000  2.000000  2.000000  2.000000  2.000000
                       2.000000  2.000000  2.000000  2.000000  2.000000  2.000000
                       2.000000  2.000000  2.000000  2.000000  2.000000  2.000000
                       2.000000  2.000000  2.000000  2.000000  2.000000  2.000000
                       2.000000  2.000000  2.000000  2.000000  2.000000  2.000000
                       2.000000  2.000000  2.000000  2.000000  2.000000  2.000000
                       2.000000  2.000000  2.000000  2.000000  2.000000  2.000000
                       2.000000  2.000000  2.000000  2.000000  2.000000  2.000000
                       2.000000  2.000000  2.000000  2.000000  2.000000  2.000000
                       2.000000  2.000000  2.000000  2.000000  2.000000  2.000000
                       2.000000  2.000000  2.000000  2.000000  2.000000  2.000000
                       2.000000  2.000000  2.000000  2.000000  2.000000  2.000000
                       2.000000  2.000000  2.000000  2.000000  2.000000  2.000000
                       0.000000  0.000000  0.000000  0.000000  0.000000  0.000000
                       0.000000  0.000000  0.000000  0.000000  0.000000  0.000000
                       0.000000  0.000000  0.000000  0.000000  0.000000  0.000000
                       0.000000  0.000000  0.000000  0.000000  0.000000  0.000000
                       0.000000  0.000000  0.000000  0.000000  0.000000  0.000000
                       0.000000  0.000000  0.000000  0.000000  0.000000  0.000000
                       0.000000  0.000000  0.000000  0.000000  0.000000  0.000000
                       0.000000  0.000000  0.000000  0.000000  0.000000  0.000000
                       0.000000  0.000000  0.000000  0.000000  0.000000  0.000000
                       0.000000  0.000000  0.000000  0.000000  0.000000  0.000000
                       0.000000  0.000000  0.000000  0.000000  0.000000  0.000000
                       0.000000  0.000000  0.000000  0.000000  0.000000  0.000000
                       0.000000  0.000000  0.000000  0.000000  0.000000  0.000000
                       0.000000  0.000000  0.000000  0.000000  0.000000  0.000000
                       0.000000  0.000000  0.000000  0.000000  0.000000  0.000000
                       0.000000  0.000000  0.000000  0.000000  0.000000  0.000000
                       0.000000  0.000000  0.000000  0.000000  0.000000  0.000000
                       0.000000  0.000000  0.000000  0.000000  0.000000  0.000000
                       0.000000  0.000000  0.000000  0.000000  0.000000  0.000000
                       0.000000  0.000000  0.000000  0.000000  0.000000  0.000000
                       0.000000  0.000000  0.000000  0.000000  0.000000  0.000000
                       0.000000  0.000000  0.000000  0.000000
              occ6     2.000000  2.000000  2.000000  2.000000  2.000000  2.000000
                       2.000000  2.000000  2.000000  2.000000  2.000000  2.000000
                       2.000000  2.000000  2.000000  2.000000  2.000000  2.000000
                       2.000000  2.000000  2.000000  2.000000  2.000000  2.000000
                       2.000000  2.000000  2.000000  2.000000  2.000000  2.000000
                       2.000000  2.000000  2.000000  2.000000  2.000000  2.000000
                       2.000000  2.000000  2.000000  2.000000  2.000000  2.000000
                       2.000000  2.000000  2.000000  2.000000  2.000000  2.000000
                       2.000000  2.000000  2.000000  2.000000  2.000000  2.000000
                       2.000000  2.000000  2.000000  2.000000  2.000000  2.000000
                       2.000000  2.000000  2.000000  2.000000  2.000000  2.000000
                       2.000000  2.000000  2.000000  2.000000  2.000000  2.000000
                       2.000000  2.000000  2.000000  2.000000  2.000000  2.000000
                       2.000000  2.000000  2.000000  2.000000  2.000000  2.000000
                       2.000000  2.000000  2.000000  2.000000  2.000000  2.000000
                       2.000000  2.000000  2.000000  2.000000  2.000000  2.000000
                       2.000000  2.000000  2.000000  2.000000  2.000000  2.000000
                       2.000000  2.000000  2.000000  2.000000  2.000000  2.000000
                       2.000000  2.000000  2.000000  2.000000  2.000000  2.000000
                       2.000000  2.000000  2.000000  2.000000  2.000000  2.000000
                       0.000000  0.000000  0.000000  0.000000  0.000000  0.000000
                       0.000000  0.000000  0.000000  0.000000  0.000000  0.000000
                       0.000000  0.000000  0.000000  0.000000  0.000000  0.000000
                       0.000000  0.000000  0.000000  0.000000  0.000000  0.000000
                       0.000000  0.000000  0.000000  0.000000  0.000000  0.000000
                       0.000000  0.000000  0.000000  0.000000  0.000000  0.000000
                       0.000000  0.000000  0.000000  0.000000  0.000000  0.000000
                       0.000000  0.000000  0.000000  0.000000  0.000000  0.000000
                       0.000000  0.000000  0.000000  0.000000  0.000000  0.000000
                       0.000000  0.000000  0.000000  0.000000  0.000000  0.000000
                       0.000000  0.000000  0.000000  0.000000  0.000000  0.000000
                       0.000000  0.000000  0.000000  0.000000  0.000000  0.000000
                       0.000000  0.000000  0.000000  0.000000  0.000000  0.000000
                       0.000000  0.000000  0.000000  0.000000  0.000000  0.000000
                       0.000000  0.000000  0.000000  0.000000  0.000000  0.000000
                       0.000000  0.000000  0.000000  0.000000  0.000000  0.000000
                       0.000000  0.000000  0.000000  0.000000  0.000000  0.000000
                       0.000000  0.000000  0.000000  0.000000  0.000000  0.000000
                       0.000000  0.000000  0.000000  0.000000  0.000000  0.000000
                       0.000000  0.000000  0.000000  0.000000  0.000000  0.000000
                       0.000000  0.000000  0.000000  0.000000  0.000000  0.000000
                       0.000000  0.000000  0.000000  0.000000
        optdriver1          0
        optdriver2          0
        optdriver3          0
        optdriver4          1
        optdriver5          1
        optdriver6          1
            prtwf1          1
            prtwf2          1
            prtwf3          1
            prtwf4          3
            prtwf5          3
            prtwf6          3
            rfdir1          0       0       0
            rfdir2          0       0       0
            rfdir3          0       0       0
            rfdir4          1       0       0
            rfdir5          0       1       0
            rfdir6          0       0       1
           rfelfd1          0
           rfelfd2          0
           rfelfd3          0
           rfelfd4          2
           rfelfd5          2
           rfelfd6          2
            rprim      1.0000000000E+00  0.0000000000E+00  0.0000000000E+00
                       0.0000000000E+00  1.0000000000E+00  0.0000000000E+00
                       0.0000000000E+00  0.0000000000E+00  6.9113460519E+00
           shiftk      5.00000000E-01  5.00000000E-01  5.00000000E-01
          spgroup         129
           strten1     1.4149783006E-02  1.4149783006E-02  1.3852783829E-02
                       0.0000000000E+00  0.0000000000E+00  0.0000000000E+00
           symrel      1  0  0   0  1  0   0  0  1      -1  0  0   0 -1  0   0  0 -1
                      -1  0  0   0  1  0   0  0 -1       1  0  0   0 -1  0   0  0  1
                      -1  0  0   0 -1  0   0  0  1       1  0  0   0  1  0   0  0 -1
                       1  0  0   0 -1  0   0  0 -1      -1  0  0   0  1  0   0  0  1
                       0  1  0   1  0  0   0  0  1       0 -1  0  -1  0  0   0  0 -1
                       0 -1  0   1  0  0   0  0 -1       0  1  0  -1  0  0   0  0  1
                       0 -1  0  -1  0  0   0  0  1       0  1  0   1  0  0   0  0 -1
                       0  1  0  -1  0  0   0  0 -1       0 -1  0   1  0  0   0  0  1
            tnons      0.0000000  0.0000000  0.0000000     0.5000000  0.5000000 -0.0000000
                       0.5000000  0.5000000 -0.0000000     0.0000000  0.0000000  0.0000000
                      -0.0000000  0.0000000  0.0000000     0.5000000  0.5000000 -0.0000000
                       0.5000000  0.5000000 -0.0000000    -0.0000000  0.0000000  0.0000000
                       0.5000000  0.5000000  0.0000000     0.0000000 -0.0000000 -0.0000000
                       0.0000000 -0.0000000 -0.0000000     0.5000000  0.5000000  0.0000000
                       0.5000000  0.5000000  0.0000000     0.0000000  0.0000000 -0.0000000
                       0.0000000  0.0000000 -0.0000000     0.5000000  0.5000000  0.0000000
           tolwfr      1.00000000E-20
            typat      1  1  1  1  1  1  1  1  2  2  2  2  2  2  2  2
           vdw_xc           5
              wtk1       0.11111    0.22222    0.22222    0.11111    0.22222    0.11111
              wtk2       0.11111    0.22222    0.22222    0.11111    0.22222    0.11111
              wtk3       0.05556    0.05556    0.05556    0.05556    0.05556    0.05556
                         0.05556    0.05556    0.05556    0.05556    0.05556    0.05556
                         0.05556    0.05556    0.05556    0.05556    0.05556    0.05556
              wtk4       0.05556    0.05556    0.05556    0.05556    0.05556    0.05556
                         0.05556    0.05556    0.05556    0.05556    0.05556    0.05556
                         0.05556    0.05556    0.05556    0.05556    0.05556    0.05556
              wtk5       0.05556    0.05556    0.05556    0.05556    0.05556    0.05556
                         0.05556    0.05556    0.05556    0.05556    0.05556    0.05556
                         0.05556    0.05556    0.05556    0.05556    0.05556    0.05556
              wtk6       0.05556    0.05556    0.05556    0.05556    0.05556    0.05556
                         0.05556    0.05556    0.05556    0.05556    0.05556    0.05556
                         0.05556    0.05556    0.05556    0.05556    0.05556    0.05556
           xangst      2.0538509643E+00  0.0000000000E+00  4.6664799058E+00
                       0.0000000000E+00  2.0538509643E+00  7.4160839249E+00
                       2.0538509643E+00  0.0000000000E+00  1.0102208464E+01
                       0.0000000000E+00  2.0538509643E+00  1.2851812483E+01
                       2.0538509643E+00  0.0000000000E+00  1.5537937023E+01
                       0.0000000000E+00  2.0538509643E+00  1.8287541042E+01
                       2.0538509643E+00  0.0000000000E+00  2.0973665581E+01
                       0.0000000000E+00  2.0538509643E+00  2.3723269600E+01
                       0.0000000000E+00  2.0538509643E+00  4.6982196457E+00
                       2.0538509643E+00  0.0000000000E+00  7.3843441850E+00
                       0.0000000000E+00  2.0538509643E+00  1.0133948204E+01
                       2.0538509643E+00  0.0000000000E+00  1.2820072743E+01
                       0.0000000000E+00  2.0538509643E+00  1.5569676763E+01
                       2.0538509643E+00  0.0000000000E+00  1.8255801302E+01
                       0.0000000000E+00  2.0538509643E+00  2.1005405321E+01
                       2.0538509643E+00  0.0000000000E+00  2.3691529860E+01
            xcart      3.8812158402E+00  0.0000000000E+00  8.8183690266E+00
                       0.0000000000E+00  3.8812158402E+00  1.4014367597E+01
                       3.8812158402E+00  0.0000000000E+00  1.9090407335E+01
                       0.0000000000E+00  3.8812158402E+00  2.4286405905E+01
                       3.8812158402E+00  0.0000000000E+00  2.9362445643E+01
                       0.0000000000E+00  3.8812158402E+00  3.4558444213E+01
                       3.8812158402E+00  0.0000000000E+00  3.9634483951E+01
                       0.0000000000E+00  3.8812158402E+00  4.4830482521E+01
                       0.0000000000E+00  3.8812158402E+00  8.8783484426E+00
                       3.8812158402E+00  0.0000000000E+00  1.3954388181E+01
                       0.0000000000E+00  3.8812158402E+00  1.9150386751E+01
                       3.8812158402E+00  0.0000000000E+00  2.4226426489E+01
                       0.0000000000E+00  3.8812158402E+00  2.9422425059E+01
                       3.8812158402E+00  0.0000000000E+00  3.4498464797E+01
                       0.0000000000E+00  3.8812158402E+00  3.9694463367E+01
                       3.8812158402E+00  0.0000000000E+00  4.4770503105E+01
             xred      5.0000000000E-01  0.0000000000E+00  1.6437200000E-01
                       0.0000000000E+00  5.0000000000E-01  2.6122400000E-01
                       5.0000000000E-01  0.0000000000E+00  3.5584000000E-01
                       0.0000000000E+00  5.0000000000E-01  4.5269200000E-01
                       5.0000000000E-01  0.0000000000E+00  5.4730800000E-01
                       0.0000000000E+00  5.0000000000E-01  6.4416000000E-01
                       5.0000000000E-01  0.0000000000E+00  7.3877600000E-01
                       0.0000000000E+00  5.0000000000E-01  8.3562800000E-01
                       0.0000000000E+00  5.0000000000E-01  1.6549000000E-01
                       5.0000000000E-01  0.0000000000E+00  2.6010600000E-01
                       0.0000000000E+00  5.0000000000E-01  3.5695800000E-01
                       5.0000000000E-01  0.0000000000E+00  4.5157400000E-01
                       0.0000000000E+00  5.0000000000E-01  5.4842600000E-01
                       5.0000000000E-01  0.0000000000E+00  6.4304200000E-01
                       0.0000000000E+00  5.0000000000E-01  7.3989400000E-01
                       5.0000000000E-01  0.0000000000E+00  8.3451000000E-01
            znucl       50.00000   34.00000

================================================================================
  

================================================================================

 Suggested references for the acknowledgment of ABINIT usage.

 The users of ABINIT have little formal obligations with respect to the ABINIT group
 (those specified in the GNU General Public License, http://www.gnu.org/copyleft/gpl.txt).
 However, it is common practice in the scientific literature,
 to acknowledge the efforts of people that have made the research possible.
 In this spirit, please find below suggested citations of work written by ABINIT developers,
 corresponding to implementations inside of ABINIT that you have used in the present run.
 Note also that it will be of great value to readers of publications presenting these results,
 to read papers enabling them to understand the theoretical formalism and details
 of the ABINIT implementation.
 For information on why they are suggested, see also https://docs.abinit.org/theory/acknowledgments.
-
- [1] The Abinit project: Impact, environment and recent developments.
- Computer Phys. Comm. 248, 107042 (2020).
- X.Gonze, B. Amadon, G. Antonius, F.Arnardi, L.Baguet, J.-M.Beuken,
- J.Bieder, F.Bottin, J.Bouchet, E.Bousquet, N.Brouwer, F.Bruneval,
- G.Brunin, T.Cavignac, J.-B. Charraud, Wei Chen, M.Cote, S.Cottenier,
- J.Denier, G.Geneste, Ph.Ghosez, M.Giantomassi, Y.Gillet, O.Gingras,
- D.R.Hamann, G.Hautier, Xu He, N.Helbig, N.Holzwarth, Y.Jia, F.Jollet,
- W.Lafargue-Dit-Hauret, K.Lejaeghere, M.A.L.Marques, A.Martin, C.Martins,
- H.P.C. Miranda, F.Naccarato, K. Persson, G.Petretto, V.Planes, Y.Pouillon,
- S.Prokhorenko, F.Ricci, G.-M.Rignanese, A.H.Romero, M.M.Schmitt, M.Torrent,
- M.J.van Setten, B.Van Troeye, M.J.Verstraete, G.Zerah and J.W.Zwanzig
- Comment: the fifth generic paper describing the ABINIT project.
- Note that a version of this paper, that is not formatted for Computer Phys. Comm. 
- is available at https://www.abinit.org/sites/default/files/ABINIT20.pdf .
- The licence allows the authors to put it on the Web.
- DOI and bibtex: see https://docs.abinit.org/theory/bibliography/#gonze2020
-
- [2] First-principles responses of solids to atomic displacements and homogeneous electric fields:,
- implementation of a conjugate-gradient algorithm. X. Gonze, Phys. Rev. B55, 10337 (1997).
- Comment: Non-vanishing rfphon and/or rfelfd, in the norm-conserving case.
- DOI and bibtex: see https://docs.abinit.org/theory/bibliography/#gonze1997
-
- [3] Dynamical matrices, Born effective charges, dielectric permittivity tensors, and ,
- interatomic force constants from density-functional perturbation theory,
- X. Gonze and C. Lee, Phys. Rev. B55, 10355 (1997).
- Comment: Non-vanishing rfphon and/or rfelfd, in the norm-conserving case.
- DOI and bibtex: see https://docs.abinit.org/theory/bibliography/#gonze1997a
-
- [4] Optimized norm-conserving Vanderbilt pseudopotentials.
- D.R. Hamann, Phys. Rev. B 88, 085117 (2013).
- Comment: Some pseudopotential generated using the ONCVPSP code were used.
- DOI and bibtex: see https://docs.abinit.org/theory/bibliography/#hamann2013
-
- [5] ABINIT: Overview, and focus on selected capabilities
- J. Chem. Phys. 152, 124102 (2020).
- A. Romero, D.C. Allan, B. Amadon, G. Antonius, T. Applencourt, L.Baguet,
- J.Bieder, F.Bottin, J.Bouchet, E.Bousquet, F.Bruneval,
- G.Brunin, D.Caliste, M.Cote,
- J.Denier, C. Dreyer, Ph.Ghosez, M.Giantomassi, Y.Gillet, O.Gingras,
- D.R.Hamann, G.Hautier, F.Jollet, G. Jomard,
- A.Martin, 
- H.P.C. Miranda, F.Naccarato, G.Petretto, N.A. Pike, V.Planes,
- S.Prokhorenko, T. Rangel, F.Ricci, G.-M.Rignanese, M.Royo, M.Stengel, M.Torrent,
- M.J.van Setten, B.Van Troeye, M.J.Verstraete, J.Wiktor, J.W.Zwanziger, and X.Gonze.
- Comment: a global overview of ABINIT, with focus on selected capabilities .
- Note that a version of this paper, that is not formatted for J. Chem. Phys 
- is available at https://www.abinit.org/sites/default/files/ABINIT20_JPC.pdf .
- The licence allows the authors to put it on the Web.
- DOI and bibtex: see https://docs.abinit.org/theory/bibliography/#romero2020
-
- [6] Recent developments in the ABINIT software package.
- Computer Phys. Comm. 205, 106 (2016).
- X.Gonze, F.Jollet, F.Abreu Araujo, D.Adams, B.Amadon, T.Applencourt,
- C.Audouze, J.-M.Beuken, J.Bieder, A.Bokhanchuk, E.Bousquet, F.Bruneval
- D.Caliste, M.Cote, F.Dahm, F.Da Pieve, M.Delaveau, M.Di Gennaro,
- B.Dorado, C.Espejo, G.Geneste, L.Genovese, A.Gerossier, M.Giantomassi,
- Y.Gillet, D.R.Hamann, L.He, G.Jomard, J.Laflamme Janssen, S.Le Roux,
- A.Levitt, A.Lherbier, F.Liu, I.Lukacevic, A.Martin, C.Martins,
- M.J.T.Oliveira, S.Ponce, Y.Pouillon, T.Rangel, G.-M.Rignanese,
- A.H.Romero, B.Rousseau, O.Rubel, A.A.Shukri, M.Stankovski, M.Torrent,
- M.J.Van Setten, B.Van Troeye, M.J.Verstraete, D.Waroquier, J.Wiktor,
- B.Xu, A.Zhou, J.W.Zwanziger.
- Comment: the fourth generic paper describing the ABINIT project.
- Note that a version of this paper, that is not formatted for Computer Phys. Comm. 
- is available at https://www.abinit.org/sites/default/files/ABINIT16.pdf .
- The licence allows the authors to put it on the Web.
- DOI and bibtex: see https://docs.abinit.org/theory/bibliography/#gonze2016
 Proc.   0 individual time (sec): cpu=       5872.3  wall=       5872.4

 Calculation completed.
.Delivered   6 WARNINGs and   0 COMMENTs to log file.

--- !FinalSummary
program: abinit
version: 9.2.2
start_datetime: Thu Feb 29 02:10:09 2024
end_datetime: Thu Feb 29 03:48:01 2024
overall_cpu_time:       35233.4
overall_wall_time:       35234.3
exit_requested_by_user: no 
timelimit: 0
pseudos: 
    Sn  : c918e999fc214fef37654f9ff7d5f03d
    Se  : f801923bd422df98a30264e8ccc86374
usepaw: 0
mpi_procs: 6
omp_threads: 1
num_warnings: 6
num_comments: 0
...
