
.Version 9.2.2 of ABINIT 
.(MPI version, prepared for a x86_64_linux_gnu9.3 computer) 

.Copyright (C) 1998-2020 ABINIT group . 
 ABINIT comes with ABSOLUTELY NO WARRANTY.
 It is free software, and you are welcome to redistribute it
 under certain conditions (GNU General Public License,
 see ~abinit/COPYING or http://www.gnu.org/copyleft/gpl.txt).

 ABINIT is a project of the Universite Catholique de Louvain,
 Corning Inc. and other collaborators, see ~abinit/doc/developers/contributors.txt .
 Please read https://docs.abinit.org/theory/acknowledgments for suggested
 acknowledgments of the ABINIT effort.
 For more information, see https://www.abinit.org .

.Starting date : Sun 17 Mar 2024.
- ( at 00h48 )
  
- The starting date is more than 3 years after the initial release
- of this version of ABINIT, namely Nov 2020.
- This version of ABINIT is not supported anymore.
- Action: please, switch to a more recent version of ABINIT.
- input  file    -> Cs2TiI6.in
- output file    -> Cs2TiI6.out
- root for input  files -> Cs2TiI6i
- root for output files -> Cs2TiI6o


 DATASET    1 : space group P4 m m (# 99); Bravais tP (primitive tetrag.)
================================================================================
 Values of the parameters that define the memory need for DATASET  1.
     intxc =       0    ionmov =       0      iscf =      17    lmnmax =       6
     lnmax =       6     mgfft =     240  mpssoang =       3    mqgrid =   11692
     natom =      16  nloc_mem =       1    nspden =       1   nspinor =       1
    nsppol =       1      nsym =       8    n1xccc =    2501    ntypat =       3
    occopt =       1   xclevel =       2
-    mband =         135        mffmem =           1         mkmem =           3
       mpw =       16850          nfft =      311040          nkpt =          10
================================================================================
P This job should need less than                     216.736 Mbytes of memory.
  Rough estimation (10% accuracy) of disk space for files :
_ WF disk file :    347.101 Mbytes ; DEN or POT disk file :      2.375 Mbytes.
================================================================================


 DATASET    2 : space group P4 m m (# 99); Bravais tP (primitive tetrag.)
================================================================================
 Values of the parameters that define the memory need for DATASET  2.
     intxc =       0    ionmov =       0      iscf =      -2    lmnmax =       6
     lnmax =       6     mgfft =     240  mpssoang =       3    mqgrid =   11692
     natom =      16  nloc_mem =       1    nspden =       1   nspinor =       1
    nsppol =       1      nsym =       8    n1xccc =    2501    ntypat =       3
    occopt =       1   xclevel =       2
-    mband =         135        mffmem =           1         mkmem =          15
       mpw =       16901          nfft =      311040          nkpt =          57
================================================================================
P This job should need less than                     591.018 Mbytes of memory.
  Rough estimation (10% accuracy) of disk space for files :
_ WF disk file :   1984.456 Mbytes ; DEN or POT disk file :      2.375 Mbytes.
================================================================================


 DATASET    3 : space group P4 m m (# 99); Bravais tP (primitive tetrag.)
================================================================================
 Values of the parameters that define the memory need for DATASET  3.
     intxc =       0    ionmov =       0      iscf =      -3    lmnmax =       6
     lnmax =       6     mgfft =     240  mpssoang =       3    mqgrid =   11692
     natom =      16  nloc_mem =       1    nspden =       1   nspinor =       1
    nsppol =       1      nsym =       8    n1xccc =    2501    ntypat =       3
    occopt =       1   xclevel =       2
-    mband =         135        mffmem =           1         mkmem =           3
       mpw =       16850          nfft =      311040          nkpt =          10
================================================================================
P This job should need less than                     169.275 Mbytes of memory.
  Rough estimation (10% accuracy) of disk space for files :
_ WF disk file :    347.101 Mbytes ; DEN or POT disk file :      2.375 Mbytes.
================================================================================

--------------------------------------------------------------------------------
------------- Echo of variables that govern the present computation ------------
--------------------------------------------------------------------------------
-
- outvars: echo of selected default values                                      
-   iomode0 =  0 , fftalg0 =112 , wfoptalg0 =  0
-
- outvars: echo of global parameters not present in the input file              
-  max_nthreads =    0
-
 -outvars: echo values of preprocessed input variables --------
            acell      7.7624316804E+00  7.7624316804E+00  5.4752990302E+01 Bohr
              amu      1.18710000E+02  7.89600000E+01  6.53900000E+01
           diemac      1.20000000E+01
        dosdeltae1     0.00000000E+00 Hartree
        dosdeltae2     0.00000000E+00 Hartree
        dosdeltae3     1.00000000E-03 Hartree
             ecut      2.25000000E+01 Hartree
-          fftalg         112
           getden1          0
           getden2          1
           getden3          1
           getwfk1          0
           getwfk2          0
           getwfk3          1
           iatsph3       1    7   14   15
             iscf1         17
             iscf2         -2
             iscf3         -3
           istwfk2       7    0    0    0    0    0    0    0    0    0
                         4    0    0    0    0    0    0    0    0    0
                         0    0    2    0    0    0    0    0    0    0
                         0    0    0    0    0    0    0    0    0    0
                         9    0    0    0    0    0    0    0    8    0
              ixc     -101130
           jdtset        1    2    3
              kpt1     6.25000000E-02  6.25000000E-02  5.00000000E-01
                       1.87500000E-01  6.25000000E-02  5.00000000E-01
                       3.12500000E-01  6.25000000E-02  5.00000000E-01
                       4.37500000E-01  6.25000000E-02  5.00000000E-01
                       1.87500000E-01  1.87500000E-01  5.00000000E-01
                       3.12500000E-01  1.87500000E-01  5.00000000E-01
                       4.37500000E-01  1.87500000E-01  5.00000000E-01
                       3.12500000E-01  3.12500000E-01  5.00000000E-01
                       4.37500000E-01  3.12500000E-01  5.00000000E-01
                       4.37500000E-01  4.37500000E-01  5.00000000E-01
              kpt2     5.00000000E-01  5.00000000E-01  0.00000000E+00
                       4.50000000E-01  4.50000000E-01  5.00000000E-02
                       4.00000000E-01  4.00000000E-01  1.00000000E-01
                       3.50000000E-01  3.50000000E-01  1.50000000E-01
                       3.00000000E-01  3.00000000E-01  2.00000000E-01
                       2.50000000E-01  2.50000000E-01  2.50000000E-01
                       2.00000000E-01  2.00000000E-01  3.00000000E-01
                       1.50000000E-01  1.50000000E-01  3.50000000E-01
                       1.00000000E-01  1.00000000E-01  4.00000000E-01
                       5.00000000E-02  5.00000000E-02  4.50000000E-01
                       0.00000000E+00  0.00000000E+00  5.00000000E-01
                       0.00000000E+00  0.00000000E+00  4.58333333E-01
                       0.00000000E+00  0.00000000E+00  4.16666667E-01
                       0.00000000E+00  0.00000000E+00  3.75000000E-01
                       0.00000000E+00  0.00000000E+00  3.33333333E-01
                       0.00000000E+00  0.00000000E+00  2.91666667E-01
                       0.00000000E+00  0.00000000E+00  2.50000000E-01
                       0.00000000E+00  0.00000000E+00  2.08333333E-01
                       0.00000000E+00  0.00000000E+00  1.66666667E-01
                       0.00000000E+00  0.00000000E+00  1.25000000E-01
                       0.00000000E+00  0.00000000E+00  8.33333333E-02
                       0.00000000E+00  0.00000000E+00  4.16666667E-02
                       0.00000000E+00  0.00000000E+00  0.00000000E+00
                       2.77777778E-02  2.77777778E-02  2.77777778E-02
                       5.55555556E-02  5.55555556E-02  5.55555556E-02
                       8.33333333E-02  8.33333333E-02  8.33333333E-02
                       1.11111111E-01  1.11111111E-01  1.11111111E-01
                       1.38888889E-01  1.38888889E-01  1.38888889E-01
                       1.66666667E-01  1.66666667E-01  1.66666667E-01
                       1.94444444E-01  1.94444444E-01  1.94444444E-01
                       2.22222222E-01  2.22222222E-01  2.22222222E-01
                       2.50000000E-01  2.50000000E-01  2.50000000E-01
                       2.77777778E-01  2.77777778E-01  2.77777778E-01
                       3.05555556E-01  3.05555556E-01  3.05555556E-01
                       3.33333333E-01  3.33333333E-01  3.33333333E-01
                       3.61111111E-01  3.61111111E-01  3.61111111E-01
                       3.88888889E-01  3.88888889E-01  3.88888889E-01
                       4.16666667E-01  4.16666667E-01  4.16666667E-01
                       4.44444444E-01  4.44444444E-01  4.44444444E-01
                       4.72222222E-01  4.72222222E-01  4.72222222E-01
                       5.00000000E-01  5.00000000E-01  5.00000000E-01
                       4.37500000E-01  5.00000000E-01  5.00000000E-01
                       3.75000000E-01  5.00000000E-01  5.00000000E-01
                       3.12500000E-01  5.00000000E-01  5.00000000E-01
                       2.50000000E-01  5.00000000E-01  5.00000000E-01
                       1.87500000E-01  5.00000000E-01  5.00000000E-01
                       1.25000000E-01  5.00000000E-01  5.00000000E-01
                       6.25000000E-02  5.00000000E-01  5.00000000E-01
                       0.00000000E+00  5.00000000E-01  5.00000000E-01
                       0.00000000E+00  5.00000000E-01  4.37500000E-01
              kpt3     6.25000000E-02  6.25000000E-02  5.00000000E-01
                       1.87500000E-01  6.25000000E-02  5.00000000E-01
                       3.12500000E-01  6.25000000E-02  5.00000000E-01
                       4.37500000E-01  6.25000000E-02  5.00000000E-01
                       1.87500000E-01  1.87500000E-01  5.00000000E-01
                       3.12500000E-01  1.87500000E-01  5.00000000E-01
                       4.37500000E-01  1.87500000E-01  5.00000000E-01
                       3.12500000E-01  3.12500000E-01  5.00000000E-01
                       4.37500000E-01  3.12500000E-01  5.00000000E-01
                       4.37500000E-01  4.37500000E-01  5.00000000E-01
                       outvar_i_n : Printing only first  50 k-points.
           kptopt1          1
           kptopt2         -5
           kptopt3          1
         kptrlatt        8    0    0      0    8    0      0    0    1
          kptrlen1     6.20994534E+01
          kptrlen2     3.00000000E+01
          kptrlen3     6.20994534E+01
P           mkmem1          3
P           mkmem2         15
P           mkmem3          3
            natom          16
           natsph3       4
            nband1        135
            nband2        135
            nband3        135
           nbdbuf1          0
           nbdbuf2          2
           nbdbuf3          2
           ndtset           3
            ngfft          36      36     240
             nkpt1         10
             nkpt2         57
             nkpt3         10
            nstep1       1000
            nstep2        300
            nstep3        300
             nsym           8
           ntypat           3
              occ      2.000000  2.000000  2.000000  2.000000  2.000000  2.000000
                       2.000000  2.000000  2.000000  2.000000  2.000000  2.000000
                       2.000000  2.000000  2.000000  2.000000  2.000000  2.000000
                       2.000000  2.000000  2.000000  2.000000  2.000000  2.000000
                       2.000000  2.000000  2.000000  2.000000  2.000000  2.000000
                       2.000000  2.000000  2.000000  2.000000  2.000000  2.000000
                       2.000000  2.000000  2.000000  2.000000  2.000000  2.000000
                       2.000000  2.000000  2.000000  2.000000  2.000000  2.000000
                       2.000000  2.000000  2.000000  2.000000  2.000000  2.000000
                       2.000000  2.000000  2.000000  2.000000  2.000000  2.000000
                       2.000000  2.000000  2.000000  2.000000  2.000000  2.000000
                       2.000000  2.000000  2.000000  2.000000  2.000000  2.000000
                       2.000000  2.000000  2.000000  2.000000  2.000000  2.000000
                       2.000000  2.000000  2.000000  2.000000  2.000000  2.000000
                       2.000000  2.000000  2.000000  2.000000  2.000000  2.000000
                       2.000000  2.000000  2.000000  2.000000  2.000000  2.000000
                       2.000000  2.000000  2.000000  2.000000  2.000000  2.000000
                       2.000000  2.000000  2.000000  2.000000  2.000000  2.000000
                       2.000000  2.000000  2.000000  2.000000  2.000000  2.000000
                       2.000000  2.000000  2.000000  2.000000  2.000000  2.000000
                       2.000000  2.000000  2.000000  2.000000  2.000000  2.000000
                       0.000000  0.000000  0.000000  0.000000  0.000000  0.000000
                       0.000000  0.000000  0.000000
           prtcif           1
           prtdos1          0
           prtdos2          0
           prtdos3          3
           shiftk      5.00000000E-01  5.00000000E-01  5.00000000E-01
          spgroup          99
           symrel      1  0  0   0  1  0   0  0  1       1  0  0   0 -1  0   0  0  1
                      -1  0  0   0 -1  0   0  0  1      -1  0  0   0  1  0   0  0  1
                       0  1  0   1  0  0   0  0  1       0  1  0  -1  0  0   0  0  1
                       0 -1  0  -1  0  0   0  0  1       0 -1  0   1  0  0   0  0  1
            tnons      0.0000000  0.0000000  0.0000000     0.0000000 -0.0000000  0.0000000
                      -0.0000000 -0.0000000  0.0000000    -0.0000000  0.0000000  0.0000000
                       0.5000000  0.5000000  0.0000000     0.5000000  0.5000000  0.0000000
                       0.5000000  0.5000000  0.0000000     0.5000000  0.5000000  0.0000000
           tolwfr      1.00000000E-20
            typat      1  1  1  1  1  1  2  2  2  2  2  2  2  2  3  3
           vdw_xc           5
              wtk1       0.06250    0.12500    0.12500    0.12500    0.06250    0.12500
                         0.12500    0.06250    0.12500    0.06250
              wtk2       1.00000    1.00000    1.00000    1.00000    1.00000    1.00000
                         1.00000    1.00000    1.00000    1.00000    1.00000    1.00000
                         1.00000    1.00000    1.00000    1.00000    1.00000    1.00000
                         1.00000    1.00000    1.00000    1.00000    1.00000    1.00000
                         1.00000    1.00000    1.00000    1.00000    1.00000    1.00000
                         1.00000    1.00000    1.00000    1.00000    1.00000    1.00000
                         1.00000    1.00000    1.00000    1.00000    1.00000    1.00000
                         1.00000    1.00000    1.00000    1.00000    1.00000    1.00000
                         1.00000    1.00000
              wtk3       0.06250    0.12500    0.12500    0.12500    0.06250    0.12500
                         0.12500    0.06250    0.12500    0.06250
                       outvars : Printing only first  50 k-points.
           xangst      2.0538509642E+00 -1.0000005802E-10  4.6664681475E+00
                      -1.0000005802E-10  2.0538509642E+00  7.4160979620E+00
                       2.0538509642E+00 -1.0000005802E-10  1.0102196638E+01
                      -1.0000005802E-10  2.0538509642E+00  1.2851826453E+01
                       2.0538509642E+00 -1.0000005802E-10  1.5537925129E+01
                      -1.0000005802E-10  2.0538509642E+00  1.8287554943E+01
                      -1.0000005802E-10  2.0538509642E+00  4.6982333557E+00
                       2.0538509642E+00 -1.0000005802E-10  7.3919861282E+00
                      -1.0000005802E-10  2.0538509642E+00  1.0144465526E+01
                       2.0538509642E+00 -1.0000005802E-10  1.2833348659E+01
                      -1.0000005802E-10  2.0538509642E+00  1.5585828057E+01
                       2.0538509642E+00 -1.0000005802E-10  1.8274711190E+01
                       2.0538509642E+00 -1.0000005802E-10  2.5980923743E+01
                      -1.0000005802E-10  2.0538509642E+00  2.8974034570E+01
                       2.0538509642E+00  2.0538509642E+00  2.7477479156E+01
                      -1.0000005802E-10 -1.0000005802E-10  2.7477479156E+01
            xcart      3.8812158400E+00 -1.8897272293E-10  8.8183468067E+00
                      -1.8897272293E-10  3.8812158400E+00  1.4014394123E+01
                       3.8812158400E+00 -1.8897272293E-10  1.9090384987E+01
                      -1.8897272293E-10  3.8812158400E+00  2.4286432303E+01
                       3.8812158400E+00 -1.8897272293E-10  2.9362423167E+01
                      -1.8897272293E-10  3.8812158400E+00  3.4558470483E+01
                      -1.8897272293E-10  3.8812158400E+00  8.8783743507E+00
                       3.8812158400E+00 -1.8897272293E-10  1.3968829360E+01
                      -1.8897272293E-10  3.8812158400E+00  1.9170261609E+01
                       3.8812158400E+00 -1.8897272293E-10  2.4251514334E+01
                      -1.8897272293E-10  3.8812158400E+00  2.9452946582E+01
                       3.8812158400E+00 -1.8897272293E-10  3.4534199307E+01
                       3.8812158400E+00 -1.8897272293E-10  4.9096830554E+01
                      -1.8897272293E-10  3.8812158400E+00  5.4752990302E+01
                       3.8812158400E+00  3.8812158400E+00  5.1924910427E+01
                      -1.8897272293E-10 -1.8897272293E-10  5.1924910427E+01
             xred      4.9999999998E-01 -2.4344526395E-11  1.6105689859E-01
                      -2.4344526395E-11  4.9999999998E-01  2.5595668922E-01
                       4.9999999998E-01 -2.4344526395E-11  3.4866378770E-01
                      -2.4344526395E-11  4.9999999998E-01  4.4356357833E-01
                       4.9999999998E-01 -2.4344526395E-11  5.3627067681E-01
                      -2.4344526395E-11  4.9999999998E-01  6.3117046744E-01
                      -2.4344526395E-11  4.9999999998E-01  1.6215323221E-01
                       4.9999999998E-01 -2.4344526395E-11  2.5512450157E-01
                      -2.4344526395E-11  4.9999999998E-01  3.5012264175E-01
                       4.9999999998E-01 -2.4344526395E-11  4.4292584204E-01
                      -2.4344526395E-11  4.9999999998E-01  5.3792398222E-01
                       4.9999999998E-01 -2.4344526395E-11  6.3072718251E-01
                       4.9999999998E-01 -2.4344526395E-11  8.9669678830E-01
                      -2.4344526395E-11  4.9999999998E-01  1.0000000000E+00
                       4.9999999998E-01  4.9999999998E-01  9.4834839414E-01
                      -2.4344526395E-11 -2.4344526395E-11  9.4834839414E-01
            znucl       50.00000   34.00000   30.00000

================================================================================

 chkinp: Checking input parameters for consistency, jdtset=   1.

 chkinp: Checking input parameters for consistency, jdtset=   2.

 chkinp: Checking input parameters for consistency, jdtset=   3.

================================================================================
== DATASET  1 ==================================================================
-   mpi_nproc: 4, omp_nthreads: -1 (-1 if OMP is not activated)


--- !DatasetInfo
iteration_state: {dtset: 1, }
dimensions: {natom: 16, nkpt: 10, mband: 135, nsppol: 1, nspinor: 1, nspden: 1, mpw: 16850, }
cutoff_energies: {ecut:  22.5, pawecutdg:  -1.0, }
electrons: {nelect:   2.52000000E+02, charge:   0.00000000E+00, occopt:   1.00000000E+00, tsmear:   1.00000000E-02, }
meta: {optdriver: 0, ionmov: 0, optcell: 0, iscf: 17, paral_kgb: 0, }
...

 Real(R)+Recip(G) space primitive vectors, cartesian coordinates (Bohr,Bohr^-1):
 R(1)=  7.7624317  0.0000000  0.0000000  G(1)=  0.1288256  0.0000000  0.0000000
 R(2)=  0.0000000  7.7624317  0.0000000  G(2)=  0.0000000  0.1288256  0.0000000
 R(3)=  0.0000000  0.0000000 54.7529903  G(3)=  0.0000000  0.0000000  0.0182638
 Unit cell volume ucvol=  3.2991604E+03 bohr^3
 Angles (23,13,12)=  9.00000000E+01  9.00000000E+01  9.00000000E+01 degrees

 getcut: wavevector=  0.0000  0.0000  0.0000  ngfft=  36  36 240
         ecut(hartree)=     22.500   => boxcut(ratio)=   2.05280

--- Pseudopotential description ------------------------------------------------
- pspini: atom type   1  psp file is ../../../Psps_for_tests/ATOMICDATA_NC/Sn.psp8
- pspatm: opening atomic psp file    ../../../Psps_for_tests/ATOMICDATA_NC/Sn.psp8
- Sn    ONCVPSP  r_core=  2.27  2.62  1.86
- 50.00000  14.00000    150810                znucl, zion, pspdat
    8   11    2    4       600   0.00000      pspcod,pspxc,lmax,lloc,mmax,r2well
    5.99000000000000    6.50000000000000    0.00000000000000   rchrg,fchrg,qchrg
     nproj     2     2     2
     extension_switch     1
  pspatm : epsatm=   32.65190642
         --- l  ekb(1:nproj) -->
             0    5.462393    0.682281
             1    4.443814    0.825686
             2   -5.382195   -1.704077
 pspatm: atomic psp has been read  and splines computed

- pspini: atom type   2  psp file is ../../../Psps_for_tests/ATOMICDATA_NC/Se.psp8
- pspatm: opening atomic psp file    ../../../Psps_for_tests/ATOMICDATA_NC/Se.psp8
- Se    ONCVPSP  r_core=  1.82  1.50  1.91
- 34.00000  16.00000    150729                znucl, zion, pspdat
    8   11    2    4       600   0.00000      pspcod,pspxc,lmax,lloc,mmax,r2well
    5.99000000000000    5.00000000000000    0.00000000000000   rchrg,fchrg,qchrg
     nproj     2     2     2
     extension_switch     1
  pspatm : epsatm=   29.53325930
         --- l  ekb(1:nproj) -->
             0    8.612261    0.939919
             1    6.984962    1.281898
             2   -9.322521   -3.856218
 pspatm: atomic psp has been read  and splines computed

- pspini: atom type   3  psp file is ../../../Psps_for_tests/ATOMICDATA_NC/Zn.psp8
- pspatm: opening atomic psp file    ../../../Psps_for_tests/ATOMICDATA_NC/Zn.psp8
- Zn    ONCVPSP  r_core=  1.36  1.66  1.85
- 30.00000  20.00000    161102                znucl, zion, pspdat
    8   11    2    4       600   0.00000      pspcod,pspxc,lmax,lloc,mmax,r2well
    5.99000000000000    2.50000000000000    0.00000000000000   rchrg,fchrg,qchrg
     nproj     2     2     2
     extension_switch     1
  pspatm : epsatm=   26.67245340
         --- l  ekb(1:nproj) -->
             0    2.404235   -1.533451
             1   -4.677427   -1.530630
             2   -7.000316   -2.622858
 pspatm: atomic psp has been read  and splines computed

   1.22351650E+05                                ecore*ucvol(ha*bohr**3)
--------------------------------------------------------------------------------

_setup2: Arith. and geom. avg. npw (full set) are   16814.375   16814.366

================================================================================

--- !BeginCycle
iteration_state: {dtset: 1, }
solver: {iscf: 17, nstep: 1000, nline: 4, wfoptalg: 0, }
tolerances: {tolwfr: 1.00E-20, }
...

     iter   Etot(hartree)      deltaE(h)  residm     nres2
 ETOT  1  -1830.4635905819    -1.830E+03 8.054E-01 1.841E+03
 ETOT  2  -1985.3010845343    -1.548E+02 3.552E-01 7.738E+03
 ETOT  3  -1835.4845729068     1.498E+02 2.018E+01 2.612E+03
 ETOT  4  -1977.0948408301    -1.416E+02 3.017E+00 4.340E+03
 ETOT  5  -1872.6079980137     1.045E+02 1.277E+00 2.168E+03
 ETOT  6  -1811.6614435156     6.095E+01 1.193E+01 2.154E+03
 ETOT  7  -1877.6274991298    -6.597E+01 8.791E-01 2.290E+03
 ETOT  8  -1851.3421330940     2.629E+01 1.613E+00 9.392E+02
 ETOT  9  -1861.4961979396    -1.015E+01 1.518E-01 8.335E+02
 ETOT 10  -1893.8410688660    -3.234E+01 4.776E-01 1.580E+03
 ETOT 11  -1862.2745409586     3.157E+01 6.952E-01 1.229E+03
 ETOT 12  -1875.5923673031    -1.332E+01 1.149E-01 1.731E+03
 ETOT 13  -1902.7843414971    -2.719E+01 1.589E+00 2.553E+03
 ETOT 14  -1883.7021294884     1.908E+01 4.259E+00 2.100E+03
 ETOT 15  -1841.0532697890     4.265E+01 2.389E+00 1.299E+02
 ETOT 16  -1853.6904000868    -1.264E+01 7.106E-01 2.266E+02
 ETOT 17  -1851.1427667796     2.548E+00 4.018E-01 1.009E+02
 ETOT 18  -1851.2562501800    -1.135E-01 2.174E-02 5.942E+01
 ETOT 19  -1853.4988128255    -2.243E+00 1.663E-01 1.027E+02
 ETOT 20  -1851.9143857754     1.584E+00 2.561E-02 6.604E+01
 ETOT 21  -1851.0505055103     8.639E-01 5.643E-02 1.476E+01
 ETOT 22  -1850.8432559898     2.072E-01 2.648E-02 3.864E+00
 ETOT 23  -1850.9739609589    -1.307E-01 2.182E-02 1.475E+01
 ETOT 24  -1851.0957924208    -1.218E-01 2.101E-02 9.753E+00
 ETOT 25  -1850.9013961642     1.944E-01 2.010E-02 2.723E+00
 ETOT 26  -1850.8241275609     7.727E-02 1.692E-02 6.533E-01
 ETOT 27  -1850.8268044073    -2.677E-03 3.863E-02 4.388E-01
 ETOT 28  -1850.8895676090    -6.276E-02 8.757E-02 2.193E+00
 ETOT 29  -1850.8438361742     4.573E-02 2.283E-02 8.128E-01
 ETOT 30  -1850.8234080285     2.043E-02 7.825E-03 3.767E-01
 ETOT 31  -1850.8176340819     5.774E-03 5.379E-03 1.775E-01
 ETOT 32  -1850.8151275227     2.507E-03 3.184E-03 8.656E-02
 ETOT 33  -1850.8156066927    -4.792E-04 3.974E-03 6.072E-02
 ETOT 34  -1850.8139515822     1.655E-03 2.191E-03 2.113E-02
 ETOT 35  -1850.8142284405    -2.769E-04 1.675E-03 1.412E-02
 ETOT 36  -1850.8144281112    -1.997E-04 1.066E-02 8.219E-03
 ETOT 37  -1850.8143655186     6.259E-05 2.319E-03 4.274E-03
 ETOT 38  -1850.8145045293    -1.390E-04 3.212E-03 2.631E-03
 ETOT 39  -1850.8142121437     2.924E-04 6.806E-04 3.171E-03
 ETOT 40  -1850.8135823390     6.298E-04 1.272E-03 9.096E-04
 ETOT 41  -1850.8132603736     3.220E-04 1.150E-03 3.971E-04
 ETOT 42  -1850.8131274391     1.329E-04 4.950E-04 2.227E-04
 ETOT 43  -1850.8130492396     7.820E-05 8.818E-04 1.352E-04
 ETOT 44  -1850.8129784616     7.078E-05 1.065E-03 3.521E-05
 ETOT 45  -1850.8129575769     2.088E-05 6.177E-04 5.629E-06
 ETOT 46  -1850.8129562553     1.322E-06 4.743E-04 1.428E-06
 ETOT 47  -1850.8129560352     2.201E-07 3.133E-04 3.510E-07
 ETOT 48  -1850.8129559902     4.498E-08 1.112E-03 5.735E-08
 ETOT 49  -1850.8129559978    -7.594E-09 4.916E-04 1.636E-08
 ETOT 50  -1850.8129559969     9.309E-10 1.390E-03 4.040E-09
 ETOT 51  -1850.8129559968     6.526E-11 4.210E-04 1.309E-09
 ETOT 52  -1850.8129559969    -1.037E-10 8.858E-04 5.625E-10
 ETOT 53  -1850.8129559969     5.753E-11 3.459E-04 2.465E-10
 ETOT 54  -1850.8129559968     1.978E-11 3.925E-04 9.544E-11
 ETOT 55  -1850.8129559968     7.367E-11 2.322E-04 2.966E-11
 ETOT 56  -1850.8129559968    -9.095E-12 1.487E-04 8.219E-12
 ETOT 57  -1850.8129559968    -5.571E-11 1.377E-04 3.151E-12
 ETOT 58  -1850.8129559968     3.547E-11 5.330E-05 1.316E-12
 ETOT 59  -1850.8129559969    -6.685E-11 7.618E-05 3.933E-13
 ETOT 60  -1850.8129559968     8.663E-11 1.980E-05 1.111E-13
 ETOT 61  -1850.8129559967     5.502E-11 4.063E-05 2.892E-14
 ETOT 62  -1850.8129559968    -1.028E-10 1.330E-05 3.116E-15
 ETOT 63  -1850.8129559968    -2.115E-11 2.127E-05 1.274E-15
 ETOT 64  -1850.8129559969    -6.480E-11 8.614E-06 3.886E-16
 ETOT 65  -1850.8129559968     6.844E-11 1.103E-05 8.860E-17
 ETOT 66  -1850.8129559968     5.321E-11 5.629E-06 2.763E-17
 ETOT 67  -1850.8129559969    -6.548E-11 5.691E-06 1.082E-17
 ETOT 68  -1850.8129559968     8.868E-12 4.394E-06 4.853E-18
 ETOT 69  -1850.8129559968    -2.274E-12 3.542E-06 2.262E-18
 ETOT 70  -1850.8129559968     2.274E-13 3.464E-06 8.587E-19
 ETOT 71  -1850.8129559968     3.911E-11 2.746E-06 3.281E-19
 ETOT 72  -1850.8129559968     2.774E-11 2.708E-06 1.399E-19
 ETOT 73  -1850.8129559967     6.139E-11 2.153E-06 3.523E-20
 ETOT 74  -1850.8129559968    -6.548E-11 2.122E-06 9.679E-21
 ETOT 75  -1850.8129559968    -1.864E-11 1.676E-06 2.644E-21
 ETOT 76  -1850.8129559968    -2.137E-11 1.654E-06 1.401E-21
 ETOT 77  -1850.8129559968     6.139E-12 1.309E-06 5.478E-22
 ETOT 78  -1850.8129559968     4.115E-11 1.290E-06 3.602E-22
 ETOT 79  -1850.8129559968     4.547E-13 1.018E-06 1.566E-22
 ETOT 80  -1850.8129559968    -1.478E-11 1.003E-06 4.004E-23
 ETOT 81  -1850.8129559968     1.137E-12 7.925E-07 7.056E-24
 ETOT 82  -1850.8129559968    -9.095E-13 7.798E-07 1.554E-24
 ETOT 83  -1850.8129559968    -1.819E-12 6.159E-07 6.439E-25
 ETOT 84  -1850.8129559968    -1.364E-12 6.054E-07 4.163E-25
 ETOT 85  -1850.8129559968    -2.956E-12 4.785E-07 2.883E-25
 ETOT 86  -1850.8129559968     6.821E-13 4.698E-07 2.118E-25
 ETOT 87  -1850.8129559968     2.501E-12 3.714E-07 2.318E-25
 ETOT 88  -1850.8129559968     2.274E-13 3.643E-07 2.637E-25
 ETOT 89  -1850.8129559968    -6.821E-13 2.883E-07 4.282E-25
 ETOT 90  -1850.8129559968    -6.821E-13 2.824E-07 4.946E-25
 ETOT 91  -1850.8129559968     3.638E-12 2.236E-07 7.520E-25
 ETOT 92  -1850.8129559968    -3.865E-12 2.189E-07 9.023E-25
 ETOT 93  -1850.8129559968     4.547E-13 1.735E-07 1.006E-24
 ETOT 94  -1850.8129559968     1.137E-12 1.696E-07 1.077E-24
 ETOT 95  -1850.8129559968    -4.547E-13 1.345E-07 1.400E-24
 ETOT 96  -1850.8129559968     1.819E-12 1.314E-07 1.458E-24
 ETOT 97  -1850.8129559968    -1.364E-12 1.043E-07 1.520E-24
 ETOT 98  -1850.8129559968     1.137E-12 1.018E-07 1.756E-24
 ETOT 99  -1850.8129559968    -1.137E-12 8.089E-08 3.206E-24
 ETOT  100  -1850.8129559968     1.819E-12 7.884E-08 1.943E-24
 ETOT  101  -1850.8129559968    -2.501E-12 6.601E-08 2.276E-24
 ETOT  102  -1850.8129559968     0.000E+00 6.108E-08 2.170E-24
 ETOT  103  -1850.8129559968     2.274E-13 5.671E-08 1.897E-24
 ETOT  104  -1850.8129559968     2.274E-12 4.731E-08 1.452E-24
 ETOT  105  -1850.8129559968    -2.274E-12 4.872E-08 4.274E-25
 ETOT  106  -1850.8129559968     3.638E-12 3.665E-08 1.220E-25
 ETOT  107  -1850.8129559968    -2.728E-12 4.187E-08 4.750E-26
 ETOT  108  -1850.8129559968     2.274E-12 2.840E-08 3.260E-26
 ETOT  109  -1850.8129559968     1.364E-12 3.599E-08 3.518E-26
 ETOT  110  -1850.8129559968     0.000E+00 2.200E-08 2.921E-26
 ETOT  111  -1850.8129559968    -1.137E-12 3.093E-08 2.802E-26
 ETOT  112  -1850.8129559968     6.821E-13 1.705E-08 2.326E-26
 ETOT  113  -1850.8129559968    -9.095E-13 2.659E-08 4.290E-26
 ETOT  114  -1850.8129559968     9.095E-13 1.321E-08 6.756E-26
 ETOT  115  -1850.8129559968    -4.547E-13 2.287E-08 1.089E-25
 ETOT  116  -1850.8129559968     0.000E+00 1.024E-08 1.398E-25
 ETOT  117  -1850.8129559968     4.547E-13 1.966E-08 1.327E-25
 ETOT  118  -1850.8129559968     0.000E+00 7.934E-09 1.608E-25
 ETOT  119  -1850.8129559968    -1.592E-12 1.691E-08 1.637E-25
 ETOT  120  -1850.8129559968     1.592E-12 6.149E-09 1.649E-25
 ETOT  121  -1850.8129559968    -1.364E-12 1.455E-08 1.655E-25
 ETOT  122  -1850.8129559968     2.274E-12 4.766E-09 1.831E-25
 ETOT  123  -1850.8129559968    -1.819E-12 1.252E-08 2.484E-25
 ETOT  124  -1850.8129559968     2.956E-12 3.903E-09 3.126E-25
 ETOT  125  -1850.8129559968    -1.819E-12 1.077E-08 7.966E-26
 ETOT  126  -1850.8129559968     2.274E-13 3.366E-09 6.798E-26
 ETOT  127  -1850.8129559968     2.274E-13 9.270E-09 2.655E-26
 ETOT  128  -1850.8129559968     1.137E-12 2.904E-09 1.683E-26
 ETOT  129  -1850.8129559968     4.547E-13 7.979E-09 1.458E-26
 ETOT  130  -1850.8129559968    -9.095E-13 2.505E-09 1.367E-26
 ETOT  131  -1850.8129559968     4.547E-13 6.869E-09 1.625E-26
 ETOT  132  -1850.8129559968    -6.821E-13 2.160E-09 1.571E-26
 ETOT  133  -1850.8129559968     4.547E-13 5.914E-09 1.737E-26
 ETOT  134  -1850.8129559968    -2.274E-13 1.864E-09 2.457E-26
 ETOT  135  -1850.8129559968     2.274E-13 5.092E-09 2.733E-26
 ETOT  136  -1850.8129559968    -1.137E-12 1.608E-09 2.552E-26
 ETOT  137  -1850.8129559968     1.364E-12 4.385E-09 3.119E-26
 ETOT  138  -1850.8129559968    -9.095E-13 1.387E-09 4.017E-26
 ETOT  139  -1850.8129559968    -2.274E-13 3.777E-09 3.035E-26
 ETOT  140  -1850.8129559968     1.137E-12 1.197E-09 3.371E-26
 ETOT  141  -1850.8129559968    -9.095E-13 3.253E-09 6.816E-26
 ETOT  142  -1850.8129559968    -6.821E-13 1.033E-09 3.652E-26
 ETOT  143  -1850.8129559968     1.137E-12 2.802E-09 4.074E-26
 ETOT  144  -1850.8129559968    -2.274E-12 8.910E-10 1.528E-26
 ETOT  145  -1850.8129559968     2.274E-13 2.414E-09 1.053E-26
 ETOT  146  -1850.8129559968     4.547E-13 7.688E-10 9.678E-27
 ETOT  147  -1850.8129559968    -9.095E-13 2.080E-09 9.455E-27
 ETOT  148  -1850.8129559968     2.274E-13 6.633E-10 9.244E-27
 ETOT  149  -1850.8129559968    -6.821E-13 1.792E-09 1.075E-26
 ETOT  150  -1850.8129559968     6.821E-13 5.723E-10 9.595E-27
 ETOT  151  -1850.8129559968    -4.547E-13 1.544E-09 9.672E-27
 ETOT  152  -1850.8129559968    -1.364E-12 4.938E-10 1.811E-26
 ETOT  153  -1850.8129559968     0.000E+00 1.331E-09 1.222E-26
 ETOT  154  -1850.8129559968     1.364E-12 4.260E-10 1.065E-26
 ETOT  155  -1850.8129559968     6.821E-13 1.147E-09 9.506E-27
 ETOT  156  -1850.8129559968    -1.592E-12 3.676E-10 1.046E-26
 ETOT  157  -1850.8129559968     2.274E-13 9.881E-10 1.070E-26
 ETOT  158  -1850.8129559968    -6.821E-13 3.171E-10 1.072E-26
 ETOT  159  -1850.8129559968     1.364E-12 8.516E-10 9.821E-27
 ETOT  160  -1850.8129559968    -1.819E-12 2.736E-10 8.723E-27
 ETOT  161  -1850.8129559968     1.592E-12 7.339E-10 1.031E-26
 ETOT  162  -1850.8129559968    -6.821E-13 2.361E-10 1.870E-26
 ETOT  163  -1850.8129559968    -9.095E-13 6.325E-10 8.789E-27
 ETOT  164  -1850.8129559968     1.364E-12 2.037E-10 1.491E-26
 ETOT  165  -1850.8129559968    -6.821E-13 5.452E-10 1.211E-26
 ETOT  166  -1850.8129559968     2.274E-13 1.757E-10 1.188E-26
 ETOT  167  -1850.8129559968     9.095E-13 4.699E-10 4.255E-26
 ETOT  168  -1850.8129559968    -9.095E-13 1.516E-10 1.202E-26
 ETOT  169  -1850.8129559968    -1.819E-12 4.051E-10 1.097E-26
 ETOT  170  -1850.8129559968     4.547E-13 1.308E-10 9.664E-27
 ETOT  171  -1850.8129559968    -2.274E-13 3.492E-10 1.182E-26
 ETOT  172  -1850.8129559968     4.547E-13 1.128E-10 6.914E-27
 ETOT  173  -1850.8129559968    -6.821E-13 3.010E-10 1.290E-26
 ETOT  174  -1850.8129559968     1.819E-12 9.735E-11 1.597E-26
 ETOT  175  -1850.8129559968    -1.364E-12 2.595E-10 9.520E-27
 ETOT  176  -1850.8129559968     1.364E-12 8.399E-11 8.188E-27
 ETOT  177  -1850.8129559968     6.821E-13 2.237E-10 8.909E-27
 ETOT  178  -1850.8129559968    -1.137E-12 7.247E-11 1.529E-26
 ETOT  179  -1850.8129559968     4.547E-13 1.928E-10 1.122E-26
 ETOT  180  -1850.8129559968    -1.137E-12 6.252E-11 1.596E-26
 ETOT  181  -1850.8129559968     6.821E-13 1.662E-10 1.200E-26
 ETOT  182  -1850.8129559968    -6.821E-13 5.394E-11 8.401E-27
 ETOT  183  -1850.8129559968     2.274E-13 1.433E-10 1.176E-26
 ETOT  184  -1850.8129559968    -6.821E-13 4.654E-11 7.734E-27
 ETOT  185  -1850.8129559968     2.274E-13 1.236E-10 7.943E-27
 ETOT  186  -1850.8129559968     9.095E-13 4.016E-11 7.334E-27
 ETOT  187  -1850.8129559968    -2.274E-13 1.065E-10 5.721E-27
 ETOT  188  -1850.8129559968     0.000E+00 3.465E-11 9.724E-27
 ETOT  189  -1850.8129559968    -1.137E-12 9.185E-11 1.111E-26
 ETOT  190  -1850.8129559968     6.821E-13 2.989E-11 7.534E-27
 ETOT  191  -1850.8129559968    -2.274E-13 7.919E-11 6.819E-27
 ETOT  192  -1850.8129559968     2.274E-13 2.579E-11 7.606E-27
 ETOT  193  -1850.8129559968    -6.821E-13 6.828E-11 1.361E-26
 ETOT  194  -1850.8129559968     0.000E+00 2.225E-11 6.664E-27
 ETOT  195  -1850.8129559968    -2.274E-13 5.887E-11 1.005E-26
 ETOT  196  -1850.8129559968     2.046E-12 1.920E-11 1.005E-26
 ETOT  197  -1850.8129559968     0.000E+00 5.076E-11 8.931E-27
 ETOT  198  -1850.8129559968    -1.592E-12 1.657E-11 5.541E-27
 ETOT  199  -1850.8129559968     9.095E-13 4.377E-11 1.975E-26
 ETOT  200  -1850.8129559968    -6.821E-13 1.429E-11 1.134E-26
 ETOT  201  -1850.8129559968     1.592E-12 3.774E-11 8.385E-27
 ETOT  202  -1850.8129559968    -1.137E-12 1.233E-11 1.308E-26
 ETOT  203  -1850.8129559968    -2.274E-13 3.255E-11 2.198E-26
 ETOT  204  -1850.8129559968     2.046E-12 1.064E-11 5.880E-27
 ETOT  205  -1850.8129559968    -1.364E-12 2.806E-11 9.411E-27
 ETOT  206  -1850.8129559968     0.000E+00 9.183E-12 9.510E-27
 ETOT  207  -1850.8129559968    -4.547E-13 2.420E-11 5.362E-27
 ETOT  208  -1850.8129559968     0.000E+00 7.923E-12 9.646E-27
 ETOT  209  -1850.8129559968     1.137E-12 2.087E-11 5.478E-27
 ETOT  210  -1850.8129559968    -4.547E-13 6.837E-12 9.089E-27
 ETOT  211  -1850.8129559968    -2.274E-13 1.800E-11 9.179E-27
 ETOT  212  -1850.8129559968    -4.547E-13 5.899E-12 8.960E-27
 ETOT  213  -1850.8129559968     4.547E-13 1.552E-11 1.766E-26
 ETOT  214  -1850.8129559968    -2.274E-13 5.090E-12 8.668E-27
 ETOT  215  -1850.8129559968     2.274E-13 1.338E-11 6.123E-27
 ETOT  216  -1850.8129559968     6.821E-13 4.392E-12 8.511E-27
 ETOT  217  -1850.8129559968    -1.137E-12 1.154E-11 1.129E-26
 ETOT  218  -1850.8129559968     4.547E-13 3.790E-12 1.596E-26
 ETOT  219  -1850.8129559968     9.095E-13 9.953E-12 1.084E-26
 ETOT  220  -1850.8129559968     4.547E-13 3.270E-12 8.366E-27
 ETOT  221  -1850.8129559968    -1.819E-12 8.583E-12 1.371E-26
 ETOT  222  -1850.8129559968     2.274E-13 2.822E-12 8.010E-27
 ETOT  223  -1850.8129559968     1.364E-12 7.403E-12 8.243E-27
 ETOT  224  -1850.8129559968    -6.821E-13 2.435E-12 7.581E-27
 ETOT  225  -1850.8129559968     2.274E-13 6.384E-12 1.029E-26
 ETOT  226  -1850.8129559968    -1.364E-12 2.101E-12 6.581E-27
 ETOT  227  -1850.8129559968    -1.592E-12 5.506E-12 1.782E-26
 ETOT  228  -1850.8129559968     2.274E-12 1.813E-12 8.620E-27
 ETOT  229  -1850.8129559968    -4.547E-13 4.748E-12 8.703E-27
 ETOT  230  -1850.8129559968    -4.547E-13 1.564E-12 1.171E-26
 ETOT  231  -1850.8129559968     1.592E-12 4.095E-12 1.861E-26
 ETOT  232  -1850.8129559968    -9.095E-13 1.350E-12 6.696E-27
 ETOT  233  -1850.8129559968     2.274E-13 3.532E-12 8.042E-27
 ETOT  234  -1850.8129559968    -4.547E-13 1.165E-12 1.295E-26
 ETOT  235  -1850.8129559968    -4.547E-13 3.046E-12 5.907E-27
 ETOT  236  -1850.8129559968     1.819E-12 1.005E-12 6.644E-27
 ETOT  237  -1850.8129559968    -9.095E-13 2.627E-12 6.152E-27
 ETOT  238  -1850.8129559968     4.547E-13 8.673E-13 8.425E-27
 ETOT  239  -1850.8129559968    -1.137E-12 2.266E-12 6.802E-27
 ETOT  240  -1850.8129559968    -6.821E-13 7.484E-13 9.162E-27
 ETOT  241  -1850.8129559968     1.364E-12 1.954E-12 7.905E-27
 ETOT  242  -1850.8129559968     0.000E+00 6.458E-13 6.709E-27
 ETOT  243  -1850.8129559968    -4.547E-13 1.686E-12 1.301E-26
 ETOT  244  -1850.8129559968     1.137E-12 5.572E-13 7.839E-27
 ETOT  245  -1850.8129559968    -1.137E-12 1.454E-12 1.085E-26
 ETOT  246  -1850.8129559968     1.592E-12 4.809E-13 2.092E-26
 ETOT  247  -1850.8129559968    -2.274E-13 1.254E-12 5.516E-27
 ETOT  248  -1850.8129559968    -9.095E-13 4.149E-13 5.882E-27
 ETOT  249  -1850.8129559968    -9.095E-13 1.081E-12 1.117E-26
 ETOT  250  -1850.8129559968     9.095E-13 3.581E-13 1.104E-26
 ETOT  251  -1850.8129559968     0.000E+00 9.328E-13 1.463E-26
 ETOT  252  -1850.8129559968     9.095E-13 3.090E-13 6.706E-27
 ETOT  253  -1850.8129559968    -1.137E-12 8.045E-13 6.382E-27
 ETOT  254  -1850.8129559968     1.137E-12 2.666E-13 7.331E-27
 ETOT  255  -1850.8129559968     6.821E-13 6.939E-13 5.988E-27
 ETOT  256  -1850.8129559968    -9.095E-13 2.301E-13 7.703E-27
 ETOT  257  -1850.8129559968     4.547E-13 5.985E-13 1.029E-26
 ETOT  258  -1850.8129559968    -4.547E-13 1.985E-13 8.416E-27
 ETOT  259  -1850.8129559968    -6.821E-13 5.163E-13 1.752E-26
 ETOT  260  -1850.8129559968     2.274E-13 1.713E-13 7.468E-27
 ETOT  261  -1850.8129559968     6.821E-13 4.453E-13 8.866E-27
 ETOT  262  -1850.8129559968    -4.547E-13 1.478E-13 9.742E-27
 ETOT  263  -1850.8129559968     4.547E-13 3.841E-13 4.948E-27
 ETOT  264  -1850.8129559968     2.274E-13 1.276E-13 9.256E-27
 ETOT  265  -1850.8129559968    -9.095E-13 3.313E-13 6.739E-27
 ETOT  266  -1850.8129559968    -1.592E-12 1.101E-13 1.060E-26
 ETOT  267  -1850.8129559968     1.592E-12 2.858E-13 8.845E-27
 ETOT  268  -1850.8129559968    -4.547E-13 9.500E-14 1.724E-26
 ETOT  269  -1850.8129559968     9.095E-13 2.465E-13 1.487E-26
 ETOT  270  -1850.8129559968    -6.821E-13 8.198E-14 1.113E-26
 ETOT  271  -1850.8129559968     0.000E+00 2.126E-13 7.288E-27
 ETOT  272  -1850.8129559968    -4.547E-13 7.074E-14 8.795E-27
 ETOT  273  -1850.8129559968     2.274E-12 1.834E-13 7.975E-27
 ETOT  274  -1850.8129559968    -2.501E-12 6.105E-14 1.313E-26
 ETOT  275  -1850.8129559968     2.274E-13 1.582E-13 7.438E-27
 ETOT  276  -1850.8129559968     6.821E-13 5.268E-14 6.423E-27
 ETOT  277  -1850.8129559968    -6.821E-13 1.365E-13 1.052E-26
 ETOT  278  -1850.8129559968    -4.547E-13 4.546E-14 1.608E-26
 ETOT  279  -1850.8129559968     9.095E-13 1.177E-13 1.062E-26
 ETOT  280  -1850.8129559968     0.000E+00 3.923E-14 5.146E-27
 ETOT  281  -1850.8129559968     0.000E+00 1.015E-13 7.384E-27
 ETOT  282  -1850.8129559968     9.095E-13 3.385E-14 7.626E-27
 ETOT  283  -1850.8129559968    -9.095E-13 8.758E-14 1.584E-26
 ETOT  284  -1850.8129559968     2.274E-13 2.921E-14 5.414E-27
 ETOT  285  -1850.8129559968    -1.592E-12 7.555E-14 7.066E-27
 ETOT  286  -1850.8129559968     4.547E-13 2.521E-14 1.172E-26
 ETOT  287  -1850.8129559968     1.364E-12 6.517E-14 7.716E-27
 ETOT  288  -1850.8129559968    -9.095E-13 2.175E-14 6.839E-27
 ETOT  289  -1850.8129559968    -4.547E-13 5.621E-14 7.794E-27
 ETOT  290  -1850.8129559968     1.819E-12 1.877E-14 6.062E-27
 ETOT  291  -1850.8129559968     0.000E+00 4.849E-14 1.082E-26
 ETOT  292  -1850.8129559968    -9.095E-13 1.620E-14 6.545E-27
 ETOT  293  -1850.8129559968    -2.274E-13 4.183E-14 9.801E-27
 ETOT  294  -1850.8129559968     1.592E-12 1.398E-14 6.104E-27
 ETOT  295  -1850.8129559968    -6.821E-13 3.608E-14 6.999E-27
 ETOT  296  -1850.8129559968    -1.137E-12 1.206E-14 8.487E-27
 ETOT  297  -1850.8129559968     2.274E-13 3.113E-14 1.176E-26
 ETOT  298  -1850.8129559968    -4.547E-13 1.041E-14 1.696E-26
 ETOT  299  -1850.8129559968     4.547E-13 2.685E-14 7.588E-27
 ETOT  300  -1850.8129559968     2.274E-13 8.984E-15 7.363E-27
 ETOT  301  -1850.8129559968    -9.095E-13 2.316E-14 3.211E-26
 ETOT  302  -1850.8129559968     1.364E-12 7.753E-15 1.678E-26
 ETOT  303  -1850.8129559968    -2.274E-12 1.998E-14 1.182E-26
 ETOT  304  -1850.8129559968     1.137E-12 6.690E-15 2.642E-26
 ETOT  305  -1850.8129559968     2.274E-13 1.724E-14 9.391E-27
 ETOT  306  -1850.8129559968    -6.821E-13 5.774E-15 7.897E-27
 ETOT  307  -1850.8129559968    -2.274E-13 1.487E-14 1.372E-26
 ETOT  308  -1850.8129559968     0.000E+00 4.982E-15 1.379E-26
 ETOT  309  -1850.8129559968     9.095E-13 1.283E-14 7.040E-27
 ETOT  310  -1850.8129559968    -9.095E-13 4.300E-15 5.418E-27
 ETOT  311  -1850.8129559968     2.274E-13 1.106E-14 7.655E-27
 ETOT  312  -1850.8129559968     6.821E-13 3.710E-15 8.711E-27
 ETOT  313  -1850.8129559968     6.821E-13 9.545E-15 1.014E-26
 ETOT  314  -1850.8129559968     0.000E+00 3.202E-15 5.905E-27
 ETOT  315  -1850.8129559968    -4.547E-13 8.234E-15 1.099E-26
 ETOT  316  -1850.8129559968     9.095E-13 2.763E-15 7.566E-27
 ETOT  317  -1850.8129559968    -6.821E-13 7.103E-15 7.120E-27
 ETOT  318  -1850.8129559968     0.000E+00 2.385E-15 8.782E-27
 ETOT  319  -1850.8129559968    -9.095E-13 6.128E-15 9.101E-27
 ETOT  320  -1850.8129559968     4.547E-13 2.058E-15 1.014E-26
 ETOT  321  -1850.8129559968     4.547E-13 5.286E-15 8.422E-27
 ETOT  322  -1850.8129559968    -9.095E-13 1.776E-15 1.192E-26
 ETOT  323  -1850.8129559968     4.547E-13 4.560E-15 7.964E-27
 ETOT  324  -1850.8129559968    -4.547E-13 1.532E-15 1.317E-26
 ETOT  325  -1850.8129559968     6.821E-13 3.934E-15 7.913E-27
 ETOT  326  -1850.8129559968     2.274E-13 1.322E-15 6.662E-27
 ETOT  327  -1850.8129559968     2.274E-13 3.394E-15 7.918E-27
 ETOT  328  -1850.8129559968    -2.274E-13 1.141E-15 6.929E-27
 ETOT  329  -1850.8129559968    -4.547E-13 2.928E-15 1.011E-26
 ETOT  330  -1850.8129559968     4.547E-13 9.849E-16 6.584E-27
 ETOT  331  -1850.8129559968     4.547E-13 2.526E-15 6.059E-27
 ETOT  332  -1850.8129559968    -2.274E-13 8.499E-16 8.880E-27
 ETOT  333  -1850.8129559968     2.274E-13 2.179E-15 8.359E-27
 ETOT  334  -1850.8129559968    -9.095E-13 7.335E-16 9.011E-27
 ETOT  335  -1850.8129559968    -4.547E-13 1.880E-15 8.058E-27
 ETOT  336  -1850.8129559968     6.821E-13 6.330E-16 7.954E-27
 ETOT  337  -1850.8129559968     2.274E-13 1.622E-15 5.228E-27
 ETOT  338  -1850.8129559968    -4.547E-13 5.462E-16 1.024E-26
 ETOT  339  -1850.8129559968    -9.095E-13 1.399E-15 1.285E-26
 ETOT  340  -1850.8129559968     1.819E-12 4.714E-16 5.829E-27
 ETOT  341  -1850.8129559968    -9.095E-13 1.207E-15 1.416E-26
 ETOT  342  -1850.8129559968     6.821E-13 4.068E-16 6.030E-27
 ETOT  343  -1850.8129559968     0.000E+00 1.041E-15 6.247E-27
 ETOT  344  -1850.8129559968    -1.137E-12 3.511E-16 4.786E-27
 ETOT  345  -1850.8129559968     9.095E-13 8.983E-16 6.795E-27
 ETOT  346  -1850.8129559968    -6.821E-13 3.030E-16 8.109E-27
 ETOT  347  -1850.8129559968     9.095E-13 7.749E-16 9.495E-27
 ETOT  348  -1850.8129559968    -2.274E-13 2.614E-16 6.598E-27
 ETOT  349  -1850.8129559968     4.547E-13 6.685E-16 1.385E-26
 ETOT  350  -1850.8129559968    -1.592E-12 2.256E-16 8.700E-27
 ETOT  351  -1850.8129559968     2.046E-12 5.768E-16 7.456E-27
 ETOT  352  -1850.8129559968    -2.501E-12 1.947E-16 2.792E-26
 ETOT  353  -1850.8129559968     2.046E-12 4.976E-16 1.158E-26
 ETOT  354  -1850.8129559968     4.547E-13 1.680E-16 1.685E-26
 ETOT  355  -1850.8129559968    -9.095E-13 4.293E-16 9.868E-27
 ETOT  356  -1850.8129559968     0.000E+00 1.450E-16 9.288E-27
 ETOT  357  -1850.8129559968    -2.274E-13 3.703E-16 9.966E-27
 ETOT  358  -1850.8129559968     2.274E-13 1.251E-16 6.252E-27
 ETOT  359  -1850.8129559968     6.821E-13 3.195E-16 1.050E-26
 ETOT  360  -1850.8129559968    -1.137E-12 1.080E-16 1.143E-26
 ETOT  361  -1850.8129559968     4.547E-13 2.756E-16 1.030E-26
 ETOT  362  -1850.8129559968    -4.547E-13 9.320E-17 9.154E-27
 ETOT  363  -1850.8129559968     2.274E-13 2.378E-16 7.186E-27
 ETOT  364  -1850.8129559968    -1.592E-12 8.043E-17 1.875E-26
 ETOT  365  -1850.8129559968     1.819E-12 2.052E-16 1.591E-26
 ETOT  366  -1850.8129559968     0.000E+00 6.941E-17 6.658E-27
 ETOT  367  -1850.8129559968    -2.274E-13 1.770E-16 1.100E-26
 ETOT  368  -1850.8129559968    -2.274E-13 5.990E-17 9.864E-27
 ETOT  369  -1850.8129559968     2.274E-13 1.527E-16 1.757E-26
 ETOT  370  -1850.8129559968     2.274E-13 5.169E-17 5.547E-27
 ETOT  371  -1850.8129559968    -2.274E-13 1.317E-16 1.605E-26
 ETOT  372  -1850.8129559968    -2.274E-13 4.461E-17 1.014E-26
 ETOT  373  -1850.8129559968     6.821E-13 1.137E-16 9.271E-27
 ETOT  374  -1850.8129559968     0.000E+00 3.850E-17 9.271E-27
 ETOT  375  -1850.8129559968    -9.095E-13 9.806E-17 5.657E-27
 ETOT  376  -1850.8129559968     1.819E-12 3.322E-17 8.170E-27
 ETOT  377  -1850.8129559968    -1.592E-12 8.460E-17 8.254E-27
 ETOT  378  -1850.8129559968     1.592E-12 2.867E-17 8.831E-27
 ETOT  379  -1850.8129559968    -2.274E-12 7.299E-17 3.566E-26
 ETOT  380  -1850.8129559968     1.137E-12 2.474E-17 7.036E-27
 ETOT  381  -1850.8129559968     4.547E-13 6.297E-17 7.403E-27
 ETOT  382  -1850.8129559968    -1.592E-12 2.135E-17 1.053E-26
 ETOT  383  -1850.8129559968     9.095E-13 5.433E-17 1.183E-26
 ETOT  384  -1850.8129559968     9.095E-13 1.843E-17 6.592E-27
 ETOT  385  -1850.8129559968     0.000E+00 4.687E-17 8.297E-27
 ETOT  386  -1850.8129559968     2.274E-13 1.590E-17 5.303E-27
 ETOT  387  -1850.8129559968     2.274E-13 4.044E-17 9.449E-27
 ETOT  388  -1850.8129559968    -2.501E-12 1.372E-17 9.141E-27
 ETOT  389  -1850.8129559968     0.000E+00 3.489E-17 1.018E-26
 ETOT  390  -1850.8129559968     2.046E-12 1.184E-17 9.777E-27
 ETOT  391  -1850.8129559968    -2.274E-13 3.010E-17 8.065E-27
 ETOT  392  -1850.8129559968     0.000E+00 1.022E-17 6.097E-27
 ETOT  393  -1850.8129559968    -6.821E-13 2.597E-17 1.321E-26
 ETOT  394  -1850.8129559968    -9.095E-13 8.820E-18 1.114E-26
 ETOT  395  -1850.8129559968     0.000E+00 2.241E-17 1.227E-26
 ETOT  396  -1850.8129559968    -2.274E-13 7.612E-18 1.212E-26
 ETOT  397  -1850.8129559968     9.095E-13 1.933E-17 6.635E-27
 ETOT  398  -1850.8129559968     0.000E+00 6.569E-18 1.198E-26
 ETOT  399  -1850.8129559968    -4.547E-13 1.668E-17 1.200E-26
 ETOT  400  -1850.8129559968     2.274E-13 5.669E-18 1.227E-26
 ETOT  401  -1850.8129559968     1.592E-12 1.439E-17 5.836E-27
 ETOT  402  -1850.8129559968    -1.364E-12 4.892E-18 8.993E-27
 ETOT  403  -1850.8129559968     2.274E-13 1.242E-17 1.089E-26
 ETOT  404  -1850.8129559968    -2.274E-13 4.222E-18 1.130E-26
 ETOT  405  -1850.8129559968     4.547E-13 1.071E-17 8.116E-27
 ETOT  406  -1850.8129559968    -2.274E-13 3.644E-18 6.963E-27
 ETOT  407  -1850.8129559968    -2.274E-13 9.242E-18 1.120E-26
 ETOT  408  -1850.8129559968     4.547E-13 3.144E-18 1.210E-26
 ETOT  409  -1850.8129559968     0.000E+00 7.974E-18 9.636E-27
 ETOT  410  -1850.8129559968    -2.274E-13 2.714E-18 5.904E-27
 ETOT  411  -1850.8129559968     1.364E-12 6.880E-18 1.247E-26
 ETOT  412  -1850.8129559968    -2.501E-12 2.342E-18 8.114E-27
 ETOT  413  -1850.8129559968     1.819E-12 5.936E-18 5.493E-27
 ETOT  414  -1850.8129559968    -1.592E-12 2.021E-18 3.077E-26
 ETOT  415  -1850.8129559968     4.547E-13 5.121E-18 1.376E-26
 ETOT  416  -1850.8129559968     6.821E-13 1.744E-18 7.875E-27
 ETOT  417  -1850.8129559968    -1.819E-12 4.418E-18 1.010E-26
 ETOT  418  -1850.8129559968     2.274E-12 1.505E-18 7.837E-27
 ETOT  419  -1850.8129559968    -9.095E-13 3.812E-18 7.046E-27
 ETOT  420  -1850.8129559968    -1.592E-12 1.299E-18 1.052E-26
 ETOT  421  -1850.8129559968     9.095E-13 3.289E-18 1.578E-26
 ETOT  422  -1850.8129559968     1.137E-12 1.121E-18 1.053E-26
 ETOT  423  -1850.8129559968     4.547E-13 2.838E-18 9.098E-27
 ETOT  424  -1850.8129559968     9.095E-13 9.674E-19 6.690E-27
 ETOT  425  -1850.8129559968    -2.046E-12 2.449E-18 6.748E-27
 ETOT  426  -1850.8129559968     4.547E-13 8.349E-19 7.714E-27
 ETOT  427  -1850.8129559968     2.274E-13 2.113E-18 1.273E-26
 ETOT  428  -1850.8129559968    -2.274E-13 7.205E-19 1.528E-26
 ETOT  429  -1850.8129559968     2.274E-13 1.823E-18 7.842E-27
 ETOT  430  -1850.8129559968    -4.547E-13 6.218E-19 6.406E-27
 ETOT  431  -1850.8129559968     1.592E-12 1.573E-18 6.615E-27
 ETOT  432  -1850.8129559968    -2.046E-12 5.366E-19 6.503E-27
 ETOT  433  -1850.8129559968     2.274E-13 1.357E-18 2.168E-26
 ETOT  434  -1850.8129559968    -2.274E-13 4.631E-19 5.678E-27
 ETOT  435  -1850.8129559968    -4.547E-13 1.171E-18 1.953E-26
 ETOT  436  -1850.8129559968     6.821E-13 3.997E-19 8.108E-27
 ETOT  437  -1850.8129559968    -9.095E-13 1.010E-18 1.064E-26
 ETOT  438  -1850.8129559968     2.046E-12 3.449E-19 6.241E-27
 ETOT  439  -1850.8129559968     9.095E-13 8.715E-19 1.065E-26
 ETOT  440  -1850.8129559968    -1.364E-12 2.977E-19 6.716E-27
 ETOT  441  -1850.8129559968     4.547E-13 7.519E-19 1.089E-26
 ETOT  442  -1850.8129559968    -1.364E-12 2.569E-19 1.082E-26
 ETOT  443  -1850.8129559968     9.095E-13 6.488E-19 9.336E-27
 ETOT  444  -1850.8129559968     4.547E-13 2.217E-19 7.859E-27
 ETOT  445  -1850.8129559968    -9.095E-13 5.598E-19 1.982E-26
 ETOT  446  -1850.8129559968    -4.547E-13 1.913E-19 1.001E-26
 ETOT  447  -1850.8129559968     0.000E+00 4.830E-19 1.089E-26
 ETOT  448  -1850.8129559968     0.000E+00 1.651E-19 9.659E-27
 ETOT  449  -1850.8129559968     9.095E-13 4.167E-19 6.153E-27
 ETOT  450  -1850.8129559968    -6.821E-13 1.425E-19 6.140E-27
 ETOT  451  -1850.8129559968     1.137E-12 3.596E-19 9.035E-27
 ETOT  452  -1850.8129559968    -1.364E-12 1.230E-19 1.297E-26
 ETOT  453  -1850.8129559968     6.821E-13 3.102E-19 6.025E-27
 ETOT  454  -1850.8129559968     6.821E-13 1.061E-19 6.708E-27
 ETOT  455  -1850.8129559968     0.000E+00 2.677E-19 7.955E-27
 ETOT  456  -1850.8129559968    -4.547E-13 9.158E-20 9.436E-27
 ETOT  457  -1850.8129559968    -1.137E-12 2.310E-19 1.108E-26
 ETOT  458  -1850.8129559968     2.274E-12 7.903E-20 7.195E-27
 ETOT  459  -1850.8129559968    -6.821E-13 1.993E-19 7.966E-27
 ETOT  460  -1850.8129559968    -9.095E-13 6.821E-20 7.712E-27
 ETOT  461  -1850.8129559968     4.547E-13 1.719E-19 1.019E-26
 ETOT  462  -1850.8129559968    -6.821E-13 5.887E-20 1.070E-26
 ETOT  463  -1850.8129559968     1.137E-12 1.483E-19 9.968E-27
 ETOT  464  -1850.8129559968    -1.364E-12 5.080E-20 9.602E-27
 ETOT  465  -1850.8129559968     4.547E-13 1.280E-19 6.698E-27
 ETOT  466  -1850.8129559968    -2.274E-13 4.384E-20 1.550E-26
 ETOT  467  -1850.8129559968    -2.274E-13 1.104E-19 7.762E-27
 ETOT  468  -1850.8129559968    -4.547E-13 3.783E-20 4.758E-27
 ETOT  469  -1850.8129559968     1.137E-12 9.529E-20 1.068E-26
 ETOT  470  -1850.8129559968    -2.274E-13 3.265E-20 6.946E-27
 ETOT  471  -1850.8129559968     1.137E-12 8.222E-20 8.638E-27
 ETOT  472  -1850.8129559968    -1.364E-12 2.818E-20 8.386E-27
 ETOT  473  -1850.8129559968     2.274E-13 7.094E-20 7.696E-27
 ETOT  474  -1850.8129559968     2.274E-13 2.432E-20 8.990E-27
 ETOT  475  -1850.8129559968     2.274E-13 6.122E-20 5.834E-27
 ETOT  476  -1850.8129559968    -6.821E-13 2.098E-20 1.160E-26
 ETOT  477  -1850.8129559968     1.137E-12 5.282E-20 6.904E-27
 ETOT  478  -1850.8129559968    -9.095E-13 1.811E-20 1.145E-26
 ETOT  479  -1850.8129559968     2.274E-13 4.557E-20 1.365E-26
 ETOT  480  -1850.8129559968    -1.364E-12 1.563E-20 4.121E-26
 ETOT  481  -1850.8129559968     6.821E-13 3.931E-20 6.392E-27
 ETOT  482  -1850.8129559968    -4.547E-13 1.349E-20 2.020E-26
 ETOT  483  -1850.8129559968     2.046E-12 3.392E-20 8.065E-27
 ETOT  484  -1850.8129559968    -1.137E-12 1.164E-20 5.988E-27
 ETOT  485  -1850.8129559968    -2.274E-13 2.928E-20 3.428E-26
 ETOT  486  -1850.8129559968     1.364E-12 1.005E-20 8.462E-27
 ETOT  487  -1850.8129559968    -9.095E-13 9.987E-21 7.040E-27

 At SCF step  487   max residual=  9.99E-21 < tolwfr=  1.00E-20 =>converged.

 Cartesian components of stress tensor (hartree/bohr^3)
  sigma(1 1)=  1.57016957E-02  sigma(3 2)=  0.00000000E+00
  sigma(2 2)=  1.57016957E-02  sigma(3 1)=  0.00000000E+00
  sigma(3 3)=  1.55221421E-02  sigma(2 1)=  0.00000000E+00


--- !ResultsGS
iteration_state: {dtset: 1, }
comment   : Summary of ground state results
lattice_vectors:
- [  7.7624317,   0.0000000,   0.0000000, ]
- [  0.0000000,   7.7624317,   0.0000000, ]
- [  0.0000000,   0.0000000,  54.7529903, ]
lattice_lengths: [   7.76243,    7.76243,   54.75299, ]
lattice_angles: [ 90.000,  90.000,  90.000, ] # degrees, (23, 13, 12)
lattice_volume:   3.2991604E+03
convergence: {deltae: -9.095E-13, res2:  7.040E-27, residm:  9.987E-21, diffor: null, }
etotal    :  -1.85081296E+03
entropy   :   0.00000000E+00
fermie    :   1.38369885E-01
cartesian_stress_tensor: # hartree/bohr^3
- [  1.57016957E-02,   0.00000000E+00,   0.00000000E+00, ]
- [  0.00000000E+00,   1.57016957E-02,   0.00000000E+00, ]
- [  0.00000000E+00,   0.00000000E+00,   1.55221421E-02, ]
pressure_GPa:  -4.6020E+02
xred      :
- [  5.0000E-01,  -2.4345E-11,   1.6106E-01, Sn]
- [ -2.4345E-11,   5.0000E-01,   2.5596E-01, Sn]
- [  5.0000E-01,  -2.4345E-11,   3.4866E-01, Sn]
- [ -2.4345E-11,   5.0000E-01,   4.4356E-01, Sn]
- [  5.0000E-01,  -2.4345E-11,   5.3627E-01, Sn]
- [ -2.4345E-11,   5.0000E-01,   6.3117E-01, Sn]
- [ -2.4345E-11,   5.0000E-01,   1.6215E-01, Se]
- [  5.0000E-01,  -2.4345E-11,   2.5512E-01, Se]
- [ -2.4345E-11,   5.0000E-01,   3.5012E-01, Se]
- [  5.0000E-01,  -2.4345E-11,   4.4293E-01, Se]
- [ -2.4345E-11,   5.0000E-01,   5.3792E-01, Se]
- [  5.0000E-01,  -2.4345E-11,   6.3073E-01, Se]
- [  5.0000E-01,  -2.4345E-11,   8.9670E-01, Se]
- [ -2.4345E-11,   5.0000E-01,   1.0000E+00, Se]
- [  5.0000E-01,   5.0000E-01,   9.4835E-01, Zn]
- [ -2.4345E-11,  -2.4345E-11,   9.4835E-01, Zn]
cartesian_forces: # hartree/bohr
- [ -0.00000000E+00,  -0.00000000E+00,  -1.45814645E-02, ]
- [ -0.00000000E+00,  -0.00000000E+00,  -1.39021735E-02, ]
- [ -0.00000000E+00,  -0.00000000E+00,   4.80637187E-03, ]
- [ -0.00000000E+00,  -0.00000000E+00,  -3.43347209E-03, ]
- [ -0.00000000E+00,  -0.00000000E+00,   1.51996987E-02, ]
- [ -0.00000000E+00,  -0.00000000E+00,   1.31149087E-02, ]
- [ -0.00000000E+00,  -0.00000000E+00,  -1.76209543E-02, ]
- [ -0.00000000E+00,  -0.00000000E+00,  -1.12000482E-02, ]
- [ -0.00000000E+00,  -0.00000000E+00,  -7.77870977E-04, ]
- [ -0.00000000E+00,  -0.00000000E+00,  -5.46004126E-03, ]
- [ -0.00000000E+00,  -0.00000000E+00,   5.04259804E-03, ]
- [ -0.00000000E+00,  -0.00000000E+00,   1.23997708E-02, ]
- [ -0.00000000E+00,  -0.00000000E+00,   9.34784421E-03, ]
- [ -0.00000000E+00,  -0.00000000E+00,  -9.88872544E-03, ]
- [ -0.00000000E+00,  -0.00000000E+00,   8.47677896E-03, ]
- [ -0.00000000E+00,  -0.00000000E+00,   8.47677896E-03, ]
force_length_stats: {min:   7.77870977E-04, max:   1.76209543E-02, mean:   9.60809379E-03, }
...

 Integrated electronic density in atomic spheres:
 ------------------------------------------------
 Atom  Sphere_radius  Integrated_density
    1        2.00000         10.54934129
    2        2.00000         10.56061884
    3        2.00000         10.59009351
    4        2.00000         10.55446803
    5        2.00000         10.58646878
    6        2.00000         10.53291519
    7        2.00000         13.29168042
    8        2.00000         13.32952870
    9        2.00000         13.31569566
   10        2.00000         13.33063266
   11        2.00000         13.32377253
   12        2.00000         13.28892170
   13        2.00000         13.27705287
   14        2.00000         13.27362372
   15        2.00000         18.10233666
   16        2.00000         18.10233666
================================================================================

 ----iterations are completed or convergence reached----

 Mean square residual over all n,k,spin=   34.819E-22; max=  99.874E-22
 reduced coordinates (array xred) for   16 atoms
       0.499999999976     -0.000000000024      0.161056898591
      -0.000000000024      0.499999999976      0.255956689223
       0.499999999976     -0.000000000024      0.348663787700
      -0.000000000024      0.499999999976      0.443563578333
       0.499999999976     -0.000000000024      0.536270676809
      -0.000000000024      0.499999999976      0.631170467442
      -0.000000000024      0.499999999976      0.162153232209
       0.499999999976     -0.000000000024      0.255124501570
      -0.000000000024      0.499999999976      0.350122641754
       0.499999999976     -0.000000000024      0.442925842039
      -0.000000000024      0.499999999976      0.537923982223
       0.499999999976     -0.000000000024      0.630727182508
       0.499999999976     -0.000000000024      0.896696788299
      -0.000000000024      0.499999999976      1.000000000000
       0.499999999976      0.499999999976      0.948348394137
      -0.000000000024     -0.000000000024      0.948348394137
 rms dE/dt=  3.3950E-01; max dE/dt=  8.9334E-01; dE/dt below (all hartree)
    1       0.000000000000      0.000000000000      0.726917795995
    2       0.000000000000      0.000000000000      0.689724582263
    3       0.000000000000      0.000000000000     -0.334624221701
    4       0.000000000000      0.000000000000      0.116531874718
    5       0.000000000000      0.000000000000     -0.903689946185
    6       0.000000000000      0.000000000000     -0.789541459479
    7       0.000000000000      0.000000000000      0.893338952612
    8       0.000000000000      0.000000000000      0.541775139411
    9       0.000000000000      0.000000000000     -0.028870227222
   10       0.000000000000      0.000000000000      0.227492597083
   11       0.000000000000      0.000000000000     -0.347558310635
   12       0.000000000000      0.000000000000     -0.750385520560
   13       0.000000000000      0.000000000000     -0.583283412918
   14       0.000000000000      0.000000000000      0.469976298702
   15       0.000000000000      0.000000000000     -0.535589985345
   16       0.000000000000      0.000000000000     -0.535589985345

 cartesian coordinates (angstrom) at end:
    1      2.05385096415820    -0.00000000010000     4.66646814753657
    2     -0.00000000010000     2.05385096415820     7.41609796202207
    3      2.05385096415820    -0.00000000010000    10.10219663818585
    4     -0.00000000010000     2.05385096415820    12.85182645267135
    5      2.05385096415820    -0.00000000010000    15.53792512883510
    6     -0.00000000010000     2.05385096415820    18.28755494332064
    7     -0.00000000010000     2.05385096415820     4.69823335569745
    8      2.05385096415820    -0.00000000010000     7.39198612818800
    9     -0.00000000010000     2.05385096415820    10.14446552598321
   10      2.05385096415820    -0.00000000010000    12.83334865925724
   11     -0.00000000010000     2.05385096415820    15.58582805705242
   12      2.05385096415820    -0.00000000010000    18.27471119032648
   13      2.05385096415820    -0.00000000010000    25.98092374312457
   14     -0.00000000010000     2.05385096415820    28.97403457015915
   15      2.05385096415820     2.05385096415820    27.47747915629152
   16     -0.00000000010000    -0.00000000010000    27.47747915629152

 cartesian forces (hartree/bohr) at end:
    1     -0.00000000000000    -0.00000000000000    -0.01458146451681
    2     -0.00000000000000    -0.00000000000000    -0.01390217351322
    3     -0.00000000000000    -0.00000000000000     0.00480637187047
    4     -0.00000000000000    -0.00000000000000    -0.00343347208925
    5     -0.00000000000000    -0.00000000000000     0.01519969872516
    6     -0.00000000000000    -0.00000000000000     0.01311490872418
    7     -0.00000000000000    -0.00000000000000    -0.01762095433641
    8     -0.00000000000000    -0.00000000000000    -0.01120004816745
    9     -0.00000000000000    -0.00000000000000    -0.00077787097710
   10     -0.00000000000000    -0.00000000000000    -0.00546004126387
   11     -0.00000000000000    -0.00000000000000     0.00504259803569
   12     -0.00000000000000    -0.00000000000000     0.01239977081660
   13     -0.00000000000000    -0.00000000000000     0.00934784421460
   14     -0.00000000000000    -0.00000000000000    -0.00988872543764
   15     -0.00000000000000    -0.00000000000000     0.00847677895753
   16     -0.00000000000000    -0.00000000000000     0.00847677895753
 frms,max,avg= 6.1546564E-03 1.7620954E-02   0.000E+00  0.000E+00  1.305E-03 h/b

 cartesian forces (eV/Angstrom) at end:
    1     -0.00000000000000    -0.00000000000000    -0.74980898981841
    2     -0.00000000000000    -0.00000000000000    -0.71487844490628
    3     -0.00000000000000    -0.00000000000000     0.24715355804863
    4     -0.00000000000000    -0.00000000000000    -0.17655621874199
    5     -0.00000000000000    -0.00000000000000     0.78159986834799
    6     -0.00000000000000    -0.00000000000000     0.67439566517490
    7     -0.00000000000000    -0.00000000000000    -0.90610582739427
    8     -0.00000000000000    -0.00000000000000    -0.57592958462272
    9     -0.00000000000000    -0.00000000000000    -0.03999973053972
   10     -0.00000000000000    -0.00000000000000    -0.28076658690299
   11     -0.00000000000000    -0.00000000000000     0.25930079484437
   12     -0.00000000000000    -0.00000000000000     0.63762179850008
   13     -0.00000000000000    -0.00000000000000     0.48068543591420
   14     -0.00000000000000    -0.00000000000000    -0.50849866434466
   15     -0.00000000000000    -0.00000000000000     0.43589346322044
   16     -0.00000000000000    -0.00000000000000     0.43589346322044
 frms,max,avg= 3.1648513E-01 9.0610583E-01   0.000E+00  0.000E+00  6.711E-02 e/A
 length scales=  7.762431680422  7.762431680422 54.752990302362 bohr
              =  4.107701928516  4.107701928516 28.974034570159 angstroms
 prteigrs : about to open file Cs2TiI6o_DS1_EIG
 Fermi (or HOMO) energy (hartree) =   0.13837   Average Vxc (hartree)=  -0.31636
 Eigenvalues (hartree) for nkpt=  10  k points:
 kpt#   1, nband=135, wtk=  0.06250, kpt=  0.0625  0.0625  0.5000 (reduced coord)
  -4.73299   -4.73299   -2.97018   -2.96990   -2.96770   -2.96739   -2.96732   -2.96726
  -1.68131   -1.68074   -1.68072   -1.67997   -1.67957   -1.67903   -1.67900   -1.67845
  -1.67807   -1.67801   -1.67724   -1.67675   -1.67611   -1.67581   -1.67557   -1.67494
  -1.67461   -1.67442   -1.67332   -1.67265   -1.67193   -1.67120   -1.67112   -1.67099
  -1.67056   -1.67015   -1.66870   -1.66865   -1.66484   -1.66454   -1.65241   -1.65167
  -1.64991   -1.64866   -1.64855   -1.64761   -1.64721   -1.64565   -1.64409   -1.64322
  -0.67413   -0.67237   -0.67217   -0.67199   -0.67131   -0.67123   -0.67098   -0.67092
  -0.67004   -0.66997   -0.66678   -0.66549   -0.66535   -0.66485   -0.66451   -0.66431
  -0.66414   -0.66407   -0.66400   -0.66356   -0.66355   -0.66336   -0.66327   -0.66206
  -0.66203   -0.66189   -0.66068   -0.66065   -0.66044   -0.66034   -0.42660   -0.41426
  -0.40346   -0.39800   -0.37794   -0.37733   -0.35869   -0.35376   -0.19519   -0.19310
  -0.19303   -0.19203   -0.19196   -0.17988   -0.17987   -0.17794   -0.17372   -0.17233
  -0.14322   -0.14096   -0.11732   -0.11334   -0.08162   -0.07812   -0.07569   -0.05281
  -0.03926   -0.03173   -0.02476   -0.01036   -0.00902   -0.00882   -0.00675   -0.00579
   0.00931    0.01387    0.02647    0.03242    0.03303    0.03881    0.04310    0.05172
   0.05653    0.05957    0.06247    0.06334    0.09760    0.10888    0.14916    0.16689
   0.19585    0.20202    0.21594    0.23286    0.24792    0.25349    0.26258
 prteigrs : prtvol=0 or 1, do not print more k-points.


--- !EnergyTerms
iteration_state     : {dtset: 1, }
comment             : Components of total free energy in Hartree
kinetic             :  1.05983904779163E+03
hartree             :  1.44008991498047E+03
xc                  : -3.67295333360788E+02
Ewald energy        : -1.00876546673181E+02
psp_core            :  3.70856935381221E+01
local_psp           : -3.29656601192691E+03
non_local_psp       : -6.22902875156816E+02
VdWaals_dft_d       : -1.86845189493614E-01
total_energy        : -1.85081295599697E+03
...


--- !EnergyTermsDC
iteration_state     : {dtset: 1, }
comment             : '"Double-counting" decomposition of free energy'
band_energy         : -2.38632146861923E+02
Ewald energy        : -1.00876546673181E+02
psp_core            :  3.70856935381221E+01
xc_dc               : -1.54820311081032E+03
VdWaals_dft_d       : -1.86845189493614E-01
total_energy_dc     : -1.85081295599679E+03
...


 Cartesian components of stress tensor (hartree/bohr^3)
  sigma(1 1)=  1.57016957E-02  sigma(3 2)=  0.00000000E+00
  sigma(2 2)=  1.57016957E-02  sigma(3 1)=  0.00000000E+00
  sigma(3 3)=  1.55221421E-02  sigma(2 1)=  0.00000000E+00

-Cartesian components of stress tensor (GPa)         [Pressure= -4.6020E+02 GPa]
- sigma(1 1)=  4.61959760E+02  sigma(3 2)=  0.00000000E+00
- sigma(2 2)=  4.61959760E+02  sigma(3 1)=  0.00000000E+00
- sigma(3 3)=  4.56677111E+02  sigma(2 1)=  0.00000000E+00

================================================================================
== DATASET  2 ==================================================================
-   mpi_nproc: 4, omp_nthreads: -1 (-1 if OMP is not activated)


--- !DatasetInfo
iteration_state: {dtset: 2, }
dimensions: {natom: 16, nkpt: 57, mband: 135, nsppol: 1, nspinor: 1, nspden: 1, mpw: 16901, }
cutoff_energies: {ecut:  22.5, pawecutdg:  -1.0, }
electrons: {nelect:   2.52000000E+02, charge:   0.00000000E+00, occopt:   1.00000000E+00, tsmear:   1.00000000E-02, }
meta: {optdriver: 0, ionmov: 0, optcell: 0, iscf: -2, paral_kgb: 0, }
...

 mkfilename : getden/=0, take file _DEN from output of DATASET   1.

 Real(R)+Recip(G) space primitive vectors, cartesian coordinates (Bohr,Bohr^-1):
 R(1)=  7.7624317  0.0000000  0.0000000  G(1)=  0.1288256  0.0000000  0.0000000
 R(2)=  0.0000000  7.7624317  0.0000000  G(2)=  0.0000000  0.1288256  0.0000000
 R(3)=  0.0000000  0.0000000 54.7529903  G(3)=  0.0000000  0.0000000  0.0182638
 Unit cell volume ucvol=  3.2991604E+03 bohr^3
 Angles (23,13,12)=  9.00000000E+01  9.00000000E+01  9.00000000E+01 degrees

 getcut: wavevector=  0.0000  0.0000  0.0000  ngfft=  36  36 240
         ecut(hartree)=     22.500   => boxcut(ratio)=   2.05280
--------------------------------------------------------------------------------


================================================================================
 prteigrs : about to open file Cs2TiI6o_DS2_EIG
 Non-SCF case, kpt    1 (  0.50000  0.50000  0.00000), residuals and eigenvalues=
  3.94E-21  5.39E-21  1.87E-21  8.28E-21  1.10E-21  8.85E-21  1.11E-21  2.13E-21
  5.51E-21  2.13E-21  3.24E-21  4.17E-21  3.49E-21  7.46E-21  3.55E-21  2.15E-21
  2.60E-21  7.04E-21  8.78E-21  5.99E-21  9.01E-21  3.79E-21  2.56E-21  3.52E-21
  9.64E-21  8.05E-21  1.58E-21  2.81E-21  3.88E-21  3.48E-21  2.36E-21  7.15E-21
  2.93E-21  2.59E-21  2.98E-21  5.96E-21  1.47E-21  6.08E-21  2.29E-21  4.63E-21
  8.37E-21  5.27E-21  6.25E-21  2.75E-21  3.23E-21  4.15E-21  9.89E-21  7.49E-21
  5.83E-21  4.59E-21  3.73E-21  5.81E-21  6.92E-21  2.39E-21  5.43E-21  6.46E-21
  5.42E-21  5.43E-21  2.86E-21  6.66E-21  6.31E-21  8.77E-21  7.40E-21  4.62E-21
  9.22E-21  4.29E-21  3.16E-21  8.56E-21  8.37E-21  4.25E-21  8.24E-21  3.61E-21
  6.93E-21  4.85E-21  3.48E-21  7.60E-21  4.26E-21  9.80E-21  4.19E-21  3.02E-21
  2.94E-21  6.05E-21  8.65E-21  7.19E-21  3.28E-21  5.28E-21  7.76E-21  9.16E-21
  5.53E-21  6.99E-21  6.70E-21  7.63E-21  6.33E-21  3.00E-21  8.38E-21  4.53E-21
  7.73E-21  2.56E-21  3.21E-21  5.93E-21  5.36E-21  4.94E-21  3.31E-21  4.77E-21
  4.21E-21  2.74E-21  3.39E-21  7.91E-21  4.68E-21  5.28E-21  6.76E-21  7.51E-21
  7.87E-21  1.64E-21  7.98E-21  3.06E-21  9.90E-21  5.97E-21  8.70E-21  3.35E-21
  6.89E-21  2.30E-21  4.66E-21  4.98E-21  9.11E-21  5.17E-21  4.20E-21  8.11E-21
  6.10E-21  7.33E-21  7.05E-21  7.42E-21  4.34E-21  9.42E-21  3.76E-11
 -4.7330E+00 -4.7330E+00 -2.9688E+00 -2.9688E+00 -2.9685E+00 -2.9685E+00
 -2.9669E+00 -2.9669E+00 -1.6800E+00 -1.6796E+00 -1.6784E+00 -1.6784E+00
 -1.6778E+00 -1.6778E+00 -1.6771E+00 -1.6771E+00 -1.6760E+00 -1.6756E+00
 -1.6756E+00 -1.6753E+00 -1.6746E+00 -1.6739E+00 -1.6738E+00 -1.6738E+00
 -1.6736E+00 -1.6728E+00 -1.6727E+00 -1.6725E+00 -1.6723E+00 -1.6714E+00
 -1.6712E+00 -1.6708E+00 -1.6703E+00 -1.6703E+00 -1.6699E+00 -1.6686E+00
 -1.6661E+00 -1.6661E+00 -1.6527E+00 -1.6512E+00 -1.6491E+00 -1.6478E+00
 -1.6478E+00 -1.6478E+00 -1.6469E+00 -1.6440E+00 -1.6440E+00 -1.6431E+00
 -6.7378E-01 -6.7324E-01 -6.7178E-01 -6.7124E-01 -6.7116E-01 -6.7116E-01
 -6.7100E-01 -6.7037E-01 -6.7037E-01 -6.7017E-01 -6.6693E-01 -6.6587E-01
 -6.6506E-01 -6.6443E-01 -6.6421E-01 -6.6411E-01 -6.6407E-01 -6.6407E-01
 -6.6382E-01 -6.6382E-01 -6.6324E-01 -6.6319E-01 -6.6242E-01 -6.6207E-01
 -6.6207E-01 -6.6157E-01 -6.6128E-01 -6.6065E-01 -6.6065E-01 -6.5975E-01
 -3.7378E-01 -3.7358E-01 -3.7178E-01 -3.7133E-01 -3.7059E-01 -3.6871E-01
 -3.4162E-01 -3.3738E-01 -1.9734E-01 -1.9734E-01 -1.8487E-01 -1.8487E-01
 -1.7809E-01 -1.7809E-01 -1.7770E-01 -1.7769E-01 -1.7692E-01 -1.7691E-01
 -1.4701E-01 -1.4647E-01 -1.2011E-01 -1.1983E-01 -1.1037E-01 -1.1037E-01
 -9.4749E-02 -9.4749E-02 -9.0416E-02 -8.9835E-02 -8.5816E-02 -8.5816E-02
 -7.4829E-02 -7.4829E-02 -5.1298E-02 -5.1298E-02 -2.8765E-02 -2.8765E-02
 -1.7859E-02 -1.7859E-02 -1.5123E-02 -1.5105E-02 -7.7654E-03 -7.6820E-03
 -7.5076E-03 -7.5076E-03  4.2661E-02  4.2767E-02  1.0182E-01  1.0370E-01
  2.1376E-01  2.1816E-01  2.2292E-01  2.2292E-01  2.2469E-01  2.2501E-01
  2.4491E-01  2.4491E-01  2.7411E-01
  prteigrs : nnsclo,ikpt=  300    1 max resid (incl. the buffer)=  3.76129E-11
 Non-SCF case, kpt    2 (  0.45000  0.45000  0.05000), residuals and eigenvalues=
  3.95E-21  2.46E-21  9.30E-22  2.36E-21  7.93E-22  1.22E-21  1.03E-21  1.32E-21
  2.97E-21  2.56E-21  7.44E-21  2.76E-21  2.84E-21  5.93E-21  4.20E-21  8.79E-21
  7.52E-21  3.05E-21  2.86E-21  8.18E-21  4.01E-21  5.61E-21  2.36E-21  3.44E-21
  9.14E-21  3.20E-21  5.91E-21  4.61E-21  9.60E-21  3.12E-21  2.53E-21  2.87E-21
  6.26E-21  2.51E-21  3.74E-21  4.95E-21  3.92E-21  8.54E-21  4.35E-21  5.84E-21
  3.27E-21  2.73E-21  4.54E-21  2.36E-21  7.70E-21  2.93E-21  9.22E-21  2.77E-21
  7.21E-21  4.71E-21  6.12E-21  6.40E-21  8.46E-21  6.62E-21  9.05E-21  2.62E-21
  7.60E-21  7.74E-21  8.92E-21  6.00E-21  8.94E-21  9.79E-21  3.62E-21  6.23E-21
  4.34E-21  6.95E-21  3.20E-21  8.77E-21  3.76E-21  4.93E-21  7.28E-21  4.41E-21
  3.30E-21  7.09E-21  5.34E-21  9.44E-21  8.08E-21  4.37E-21  5.82E-21  8.36E-21
  6.21E-21  5.43E-21  2.63E-21  5.99E-21  5.42E-21  2.91E-21  4.28E-21  6.67E-21
  8.75E-21  7.13E-21  3.55E-21  4.28E-21  3.96E-21  4.11E-21  8.88E-21  4.61E-21
  6.13E-21  6.56E-21  3.81E-21  4.24E-21  6.89E-21  4.83E-21  2.52E-21  7.40E-21
  3.36E-21  7.41E-21  8.91E-21  2.08E-21  4.15E-21  6.16E-21  4.34E-21  3.96E-21
  8.25E-21  8.94E-21  5.72E-21  4.37E-21  4.90E-21  3.70E-21  3.69E-21  5.45E-21
  7.57E-21  6.76E-21  7.21E-21  3.78E-21  1.25E-21  4.64E-21  6.26E-21  4.83E-21
  3.04E-21  6.38E-21  6.32E-21  6.13E-21  9.69E-21  4.48E-21  8.47E-06
 -4.7330E+00 -4.7330E+00 -2.9688E+00 -2.9685E+00 -2.9684E+00 -2.9683E+00
 -2.9676E+00 -2.9675E+00 -1.6799E+00 -1.6798E+00 -1.6787E+00 -1.6784E+00
 -1.6780E+00 -1.6779E+00 -1.6777E+00 -1.6774E+00 -1.6772E+00 -1.6769E+00
 -1.6766E+00 -1.6764E+00 -1.6758E+00 -1.6751E+00 -1.6746E+00 -1.6741E+00
 -1.6740E+00 -1.6738E+00 -1.6733E+00 -1.6728E+00 -1.6724E+00 -1.6721E+00
 -1.6720E+00 -1.6715E+00 -1.6710E+00 -1.6704E+00 -1.6698E+00 -1.6689E+00
 -1.6659E+00 -1.6650E+00 -1.6517E+00 -1.6511E+00 -1.6489E+00 -1.6482E+00
 -1.6482E+00 -1.6475E+00 -1.6475E+00 -1.6450E+00 -1.6447E+00 -1.6445E+00
 -6.7348E-01 -6.7298E-01 -6.7207E-01 -6.7162E-01 -6.7130E-01 -6.7125E-01
 -6.7100E-01 -6.7046E-01 -6.7042E-01 -6.7016E-01 -6.6671E-01 -6.6558E-01
 -6.6493E-01 -6.6480E-01 -6.6459E-01 -6.6426E-01 -6.6425E-01 -6.6412E-01
 -6.6391E-01 -6.6386E-01 -6.6327E-01 -6.6323E-01 -6.6241E-01 -6.6223E-01
 -6.6215E-01 -6.6168E-01 -6.6165E-01 -6.6076E-01 -6.6075E-01 -6.5973E-01
 -3.7453E-01 -3.7376E-01 -3.7336E-01 -3.7155E-01 -3.7141E-01 -3.6941E-01
 -3.4245E-01 -3.3822E-01 -1.9741E-01 -1.9614E-01 -1.8504E-01 -1.8484E-01
 -1.8058E-01 -1.7867E-01 -1.7779E-01 -1.7756E-01 -1.7753E-01 -1.7710E-01
 -1.5151E-01 -1.5093E-01 -1.2663E-01 -1.2617E-01 -1.1231E-01 -1.0901E-01
 -9.7504E-02 -9.3398E-02 -8.6090E-02 -8.4589E-02 -8.2621E-02 -8.1518E-02
 -7.3499E-02 -6.4008E-02 -4.9995E-02 -4.3042E-02 -2.7511E-02 -2.6390E-02
 -1.7958E-02 -1.6661E-02 -1.4232E-02 -1.0692E-02 -6.0482E-03 -5.6249E-03
 -5.1318E-03  3.8316E-03  4.0968E-02  4.4398E-02  1.0058E-01  1.0408E-01
  2.1065E-01  2.1666E-01  2.2100E-01  2.2317E-01  2.2635E-01  2.2876E-01
  2.4616E-01  2.4918E-01  2.7279E-01
  prteigrs : nnsclo,ikpt=  300    2 max resid (incl. the buffer)=  8.47021E-06
 Non-SCF case, kpt    3 (  0.40000  0.40000  0.10000), residuals and eigenvalues=
  2.66E-21  2.29E-21  2.51E-21  3.84E-21  1.85E-21  7.85E-21  1.28E-21  1.85E-21
  4.71E-21  4.72E-21  4.39E-21  9.60E-21  8.04E-21  4.14E-21  2.94E-21  3.76E-21
  3.84E-21  2.88E-21  6.64E-21  7.33E-21  3.67E-21  3.29E-21  2.54E-21  2.03E-21
  4.17E-21  4.50E-21  5.22E-21  2.87E-21  6.90E-21  2.54E-21  9.39E-21  4.52E-21
  4.04E-21  4.67E-21  4.11E-21  3.61E-21  3.70E-21  2.34E-21  3.54E-21  4.93E-21
  5.48E-21  8.89E-21  5.92E-21  5.92E-21  4.18E-21  6.01E-21  7.13E-21  3.63E-21
  5.29E-21  2.07E-21  3.48E-21  2.35E-21  9.81E-21  3.07E-21  6.99E-21  9.52E-21
  2.34E-21  2.63E-21  9.42E-21  4.30E-21  3.50E-21  6.69E-21  2.70E-21  4.22E-21
  3.21E-21  9.66E-21  3.45E-21  7.40E-21  9.38E-21  4.11E-21  2.72E-21  3.77E-21
  8.70E-21  2.55E-21  5.75E-21  9.60E-21  2.46E-21  6.62E-21  3.44E-21  4.12E-21
  4.95E-21  3.71E-21  3.16E-21  5.53E-21  3.18E-21  7.33E-21  9.46E-21  4.80E-21
  7.19E-21  6.05E-21  6.69E-21  8.76E-21  9.75E-21  9.54E-21  5.04E-21  8.78E-21
  9.19E-21  3.93E-21  5.01E-21  8.75E-21  3.19E-21  3.52E-21  4.34E-21  4.42E-21
  7.37E-21  5.38E-21  8.63E-21  2.66E-21  3.06E-21  5.05E-21  4.17E-21  8.21E-21
  5.86E-21  6.48E-21  5.83E-21  3.12E-21  2.66E-21  6.99E-21  3.81E-21  6.22E-21
  8.00E-21  3.11E-21  3.60E-21  2.49E-21  7.81E-21  7.15E-21  8.46E-21  6.02E-21
  4.96E-21  7.40E-21  5.03E-21  7.38E-21  5.65E-21  6.09E-15  2.87E-07
 -4.7330E+00 -4.7330E+00 -2.9695E+00 -2.9687E+00 -2.9685E+00 -2.9680E+00
 -2.9680E+00 -2.9677E+00 -1.6808E+00 -1.6802E+00 -1.6796E+00 -1.6791E+00
 -1.6788E+00 -1.6787E+00 -1.6780E+00 -1.6778E+00 -1.6777E+00 -1.6775E+00
 -1.6772E+00 -1.6765E+00 -1.6763E+00 -1.6757E+00 -1.6752E+00 -1.6752E+00
 -1.6749E+00 -1.6740E+00 -1.6737E+00 -1.6733E+00 -1.6728E+00 -1.6727E+00
 -1.6725E+00 -1.6720E+00 -1.6716E+00 -1.6709E+00 -1.6706E+00 -1.6691E+00
 -1.6673E+00 -1.6661E+00 -1.6523E+00 -1.6517E+00 -1.6497E+00 -1.6496E+00
 -1.6487E+00 -1.6485E+00 -1.6479E+00 -1.6459E+00 -1.6456E+00 -1.6450E+00
 -6.7347E-01 -6.7304E-01 -6.7214E-01 -6.7178E-01 -6.7141E-01 -6.7133E-01
 -6.7114E-01 -6.7057E-01 -6.7048E-01 -6.7030E-01 -6.6668E-01 -6.6561E-01
 -6.6508E-01 -6.6480E-01 -6.6473E-01 -6.6439E-01 -6.6436E-01 -6.6427E-01
 -6.6404E-01 -6.6393E-01 -6.6341E-01 -6.6338E-01 -6.6256E-01 -6.6235E-01
 -6.6220E-01 -6.6188E-01 -6.6165E-01 -6.6090E-01 -6.6080E-01 -6.5987E-01
 -3.7850E-01 -3.7690E-01 -3.7476E-01 -3.7402E-01 -3.7200E-01 -3.7035E-01
 -3.4469E-01 -3.4048E-01 -1.9795E-01 -1.9372E-01 -1.8625E-01 -1.8501E-01
 -1.8287E-01 -1.7936E-01 -1.7874E-01 -1.7838E-01 -1.7746E-01 -1.7735E-01
 -1.6023E-01 -1.5878E-01 -1.3661E-01 -1.3452E-01 -1.1807E-01 -1.1067E-01
 -1.0496E-01 -8.9395E-02 -8.6698E-02 -8.1549E-02 -6.9563E-02 -5.9194E-02
 -5.8956E-02 -4.6149E-02 -4.0331E-02 -3.0850E-02 -2.6089E-02 -2.4267E-02
 -2.3807E-02 -1.3130E-02 -7.9075E-03 -1.7242E-03  1.1036E-03  9.6324E-03
  1.5572E-02  1.9500E-02  3.8371E-02  4.9837E-02  9.5782E-02  1.0702E-01
  2.0163E-01  2.1553E-01  2.2187E-01  2.2380E-01  2.3106E-01  2.3344E-01
  2.4999E-01  2.5858E-01  2.6629E-01
  prteigrs : nnsclo,ikpt=  300    3 max resid (incl. the buffer)=  2.87040E-07
 Non-SCF case, kpt    4 (  0.35000  0.35000  0.15000), residuals and eigenvalues=
  8.76E-21  6.15E-21  2.68E-21  1.65E-21  1.34E-21  2.27E-21  1.20E-21  1.11E-21
  9.36E-21  5.49E-21  4.92E-21  7.64E-21  2.73E-21  6.13E-21  9.48E-21  5.88E-21
  5.20E-21  2.82E-21  3.94E-21  8.87E-21  2.64E-21  7.82E-21  3.23E-21  9.23E-21
  8.76E-21  2.17E-21  8.04E-21  5.06E-21  3.44E-21  8.73E-21  4.21E-21  8.94E-21
  2.21E-21  3.82E-21  2.63E-21  2.26E-21  2.45E-21  2.89E-21  5.42E-21  2.47E-21
  2.30E-21  3.86E-21  3.18E-21  7.98E-21  6.93E-21  3.04E-21  5.61E-21  7.68E-21
  5.88E-21  8.84E-21  2.65E-21  5.66E-21  2.36E-21  4.20E-21  8.03E-21  5.03E-21
  5.66E-21  4.73E-21  3.16E-21  7.71E-21  5.66E-21  2.01E-21  4.72E-21  5.66E-21
  4.18E-21  7.98E-21  2.74E-21  6.24E-21  6.67E-21  7.76E-21  4.13E-21  2.54E-21
  3.52E-21  2.66E-21  3.02E-21  7.65E-21  5.66E-21  8.63E-21  5.78E-21  7.22E-21
  8.76E-21  5.53E-21  7.72E-21  4.04E-21  7.73E-21  7.58E-21  7.21E-21  4.98E-21
  3.72E-21  7.20E-21  6.01E-21  8.96E-21  7.06E-21  9.41E-21  5.05E-21  3.25E-21
  2.53E-21  4.03E-21  3.93E-21  3.01E-21  9.73E-21  7.73E-21  4.36E-21  2.32E-21
  7.64E-21  8.09E-21  2.51E-21  6.24E-21  9.55E-21  6.76E-21  2.91E-21  6.42E-21
[...]
                      -0.0000000000E+00 -0.0000000000E+00  8.4767789575E-03
                      -0.0000000000E+00 -0.0000000000E+00  8.4767789575E-03
-          fftalg         112
           getden1          0
           getden2          1
           getden3          1
           getwfk1          0
           getwfk2          0
           getwfk3          1
           iatsph3       1    7   14   15
             iscf1         17
             iscf2         -2
             iscf3         -3
           istwfk2       7    0    0    0    0    0    0    0    0    0
                         4    0    0    0    0    0    0    0    0    0
                         0    0    2    0    0    0    0    0    0    0
                         0    0    0    0    0    0    0    0    0    0
                         9    0    0    0    0    0    0    0    8    0
              ixc     -101130
           jdtset        1    2    3
              kpt1     6.25000000E-02  6.25000000E-02  5.00000000E-01
                       1.87500000E-01  6.25000000E-02  5.00000000E-01
                       3.12500000E-01  6.25000000E-02  5.00000000E-01
                       4.37500000E-01  6.25000000E-02  5.00000000E-01
                       1.87500000E-01  1.87500000E-01  5.00000000E-01
                       3.12500000E-01  1.87500000E-01  5.00000000E-01
                       4.37500000E-01  1.87500000E-01  5.00000000E-01
                       3.12500000E-01  3.12500000E-01  5.00000000E-01
                       4.37500000E-01  3.12500000E-01  5.00000000E-01
                       4.37500000E-01  4.37500000E-01  5.00000000E-01
              kpt2     5.00000000E-01  5.00000000E-01  0.00000000E+00
                       4.50000000E-01  4.50000000E-01  5.00000000E-02
                       4.00000000E-01  4.00000000E-01  1.00000000E-01
                       3.50000000E-01  3.50000000E-01  1.50000000E-01
                       3.00000000E-01  3.00000000E-01  2.00000000E-01
                       2.50000000E-01  2.50000000E-01  2.50000000E-01
                       2.00000000E-01  2.00000000E-01  3.00000000E-01
                       1.50000000E-01  1.50000000E-01  3.50000000E-01
                       1.00000000E-01  1.00000000E-01  4.00000000E-01
                       5.00000000E-02  5.00000000E-02  4.50000000E-01
                       0.00000000E+00  0.00000000E+00  5.00000000E-01
                       0.00000000E+00  0.00000000E+00  4.58333333E-01
                       0.00000000E+00  0.00000000E+00  4.16666667E-01
                       0.00000000E+00  0.00000000E+00  3.75000000E-01
                       0.00000000E+00  0.00000000E+00  3.33333333E-01
                       0.00000000E+00  0.00000000E+00  2.91666667E-01
                       0.00000000E+00  0.00000000E+00  2.50000000E-01
                       0.00000000E+00  0.00000000E+00  2.08333333E-01
                       0.00000000E+00  0.00000000E+00  1.66666667E-01
                       0.00000000E+00  0.00000000E+00  1.25000000E-01
                       0.00000000E+00  0.00000000E+00  8.33333333E-02
                       0.00000000E+00  0.00000000E+00  4.16666667E-02
                       0.00000000E+00  0.00000000E+00  0.00000000E+00
                       2.77777778E-02  2.77777778E-02  2.77777778E-02
                       5.55555556E-02  5.55555556E-02  5.55555556E-02
                       8.33333333E-02  8.33333333E-02  8.33333333E-02
                       1.11111111E-01  1.11111111E-01  1.11111111E-01
                       1.38888889E-01  1.38888889E-01  1.38888889E-01
                       1.66666667E-01  1.66666667E-01  1.66666667E-01
                       1.94444444E-01  1.94444444E-01  1.94444444E-01
                       2.22222222E-01  2.22222222E-01  2.22222222E-01
                       2.50000000E-01  2.50000000E-01  2.50000000E-01
                       2.77777778E-01  2.77777778E-01  2.77777778E-01
                       3.05555556E-01  3.05555556E-01  3.05555556E-01
                       3.33333333E-01  3.33333333E-01  3.33333333E-01
                       3.61111111E-01  3.61111111E-01  3.61111111E-01
                       3.88888889E-01  3.88888889E-01  3.88888889E-01
                       4.16666667E-01  4.16666667E-01  4.16666667E-01
                       4.44444444E-01  4.44444444E-01  4.44444444E-01
                       4.72222222E-01  4.72222222E-01  4.72222222E-01
                       5.00000000E-01  5.00000000E-01  5.00000000E-01
                       4.37500000E-01  5.00000000E-01  5.00000000E-01
                       3.75000000E-01  5.00000000E-01  5.00000000E-01
                       3.12500000E-01  5.00000000E-01  5.00000000E-01
                       2.50000000E-01  5.00000000E-01  5.00000000E-01
                       1.87500000E-01  5.00000000E-01  5.00000000E-01
                       1.25000000E-01  5.00000000E-01  5.00000000E-01
                       6.25000000E-02  5.00000000E-01  5.00000000E-01
                       0.00000000E+00  5.00000000E-01  5.00000000E-01
                       0.00000000E+00  5.00000000E-01  4.37500000E-01
              kpt3     6.25000000E-02  6.25000000E-02  5.00000000E-01
                       1.87500000E-01  6.25000000E-02  5.00000000E-01
                       3.12500000E-01  6.25000000E-02  5.00000000E-01
                       4.37500000E-01  6.25000000E-02  5.00000000E-01
                       1.87500000E-01  1.87500000E-01  5.00000000E-01
                       3.12500000E-01  1.87500000E-01  5.00000000E-01
                       4.37500000E-01  1.87500000E-01  5.00000000E-01
                       3.12500000E-01  3.12500000E-01  5.00000000E-01
                       4.37500000E-01  3.12500000E-01  5.00000000E-01
                       4.37500000E-01  4.37500000E-01  5.00000000E-01
                       outvar_i_n : Printing only first  50 k-points.
           kptopt1          1
           kptopt2         -5
           kptopt3          1
         kptrlatt        8    0    0      0    8    0      0    0    1
          kptrlen1     6.20994534E+01
          kptrlen2     3.00000000E+01
          kptrlen3     6.20994534E+01
P           mkmem1          3
P           mkmem2         15
P           mkmem3          3
            natom          16
           natsph3       4
            nband1        135
            nband2        135
            nband3        135
           nbdbuf1          0
           nbdbuf2          2
           nbdbuf3          2
           ndtset           3
            ngfft          36      36     240
             nkpt1         10
             nkpt2         57
             nkpt3         10
            nstep1       1000
            nstep2        300
            nstep3        300
             nsym           8
           ntypat           3
              occ      2.000000  2.000000  2.000000  2.000000  2.000000  2.000000
                       2.000000  2.000000  2.000000  2.000000  2.000000  2.000000
                       2.000000  2.000000  2.000000  2.000000  2.000000  2.000000
                       2.000000  2.000000  2.000000  2.000000  2.000000  2.000000
                       2.000000  2.000000  2.000000  2.000000  2.000000  2.000000
                       2.000000  2.000000  2.000000  2.000000  2.000000  2.000000
                       2.000000  2.000000  2.000000  2.000000  2.000000  2.000000
                       2.000000  2.000000  2.000000  2.000000  2.000000  2.000000
                       2.000000  2.000000  2.000000  2.000000  2.000000  2.000000
                       2.000000  2.000000  2.000000  2.000000  2.000000  2.000000
                       2.000000  2.000000  2.000000  2.000000  2.000000  2.000000
                       2.000000  2.000000  2.000000  2.000000  2.000000  2.000000
                       2.000000  2.000000  2.000000  2.000000  2.000000  2.000000
                       2.000000  2.000000  2.000000  2.000000  2.000000  2.000000
                       2.000000  2.000000  2.000000  2.000000  2.000000  2.000000
                       2.000000  2.000000  2.000000  2.000000  2.000000  2.000000
                       2.000000  2.000000  2.000000  2.000000  2.000000  2.000000
                       2.000000  2.000000  2.000000  2.000000  2.000000  2.000000
                       2.000000  2.000000  2.000000  2.000000  2.000000  2.000000
                       2.000000  2.000000  2.000000  2.000000  2.000000  2.000000
                       2.000000  2.000000  2.000000  2.000000  2.000000  2.000000
                       0.000000  0.000000  0.000000  0.000000  0.000000  0.000000
                       0.000000  0.000000  0.000000
           prtcif           1
           prtdos1          0
           prtdos2          0
           prtdos3          3
           shiftk      5.00000000E-01  5.00000000E-01  5.00000000E-01
          spgroup          99
           strten1     1.5701695739E-02  1.5701695739E-02  1.5522142131E-02
                       0.0000000000E+00  0.0000000000E+00  0.0000000000E+00
           symrel      1  0  0   0  1  0   0  0  1       1  0  0   0 -1  0   0  0  1
                      -1  0  0   0 -1  0   0  0  1      -1  0  0   0  1  0   0  0  1
                       0  1  0   1  0  0   0  0  1       0  1  0  -1  0  0   0  0  1
                       0 -1  0  -1  0  0   0  0  1       0 -1  0   1  0  0   0  0  1
            tnons      0.0000000  0.0000000  0.0000000     0.0000000 -0.0000000  0.0000000
                      -0.0000000 -0.0000000  0.0000000    -0.0000000  0.0000000  0.0000000
                       0.5000000  0.5000000  0.0000000     0.5000000  0.5000000  0.0000000
                       0.5000000  0.5000000  0.0000000     0.5000000  0.5000000  0.0000000
           tolwfr      1.00000000E-20
            typat      1  1  1  1  1  1  2  2  2  2  2  2  2  2  3  3
           vdw_xc           5
              wtk1       0.06250    0.12500    0.12500    0.12500    0.06250    0.12500
                         0.12500    0.06250    0.12500    0.06250
              wtk2       1.00000    1.00000    1.00000    1.00000    1.00000    1.00000
                         1.00000    1.00000    1.00000    1.00000    1.00000    1.00000
                         1.00000    1.00000    1.00000    1.00000    1.00000    1.00000
                         1.00000    1.00000    1.00000    1.00000    1.00000    1.00000
                         1.00000    1.00000    1.00000    1.00000    1.00000    1.00000
                         1.00000    1.00000    1.00000    1.00000    1.00000    1.00000
                         1.00000    1.00000    1.00000    1.00000    1.00000    1.00000
                         1.00000    1.00000    1.00000    1.00000    1.00000    1.00000
                         1.00000    1.00000
              wtk3       0.06250    0.12500    0.12500    0.12500    0.06250    0.12500
                         0.12500    0.06250    0.12500    0.06250
                       outvars : Printing only first  50 k-points.
           xangst      2.0538509642E+00 -1.0000005802E-10  4.6664681475E+00
                      -1.0000005802E-10  2.0538509642E+00  7.4160979620E+00
                       2.0538509642E+00 -1.0000005802E-10  1.0102196638E+01
                      -1.0000005802E-10  2.0538509642E+00  1.2851826453E+01
                       2.0538509642E+00 -1.0000005802E-10  1.5537925129E+01
                      -1.0000005802E-10  2.0538509642E+00  1.8287554943E+01
                      -1.0000005802E-10  2.0538509642E+00  4.6982333557E+00
                       2.0538509642E+00 -1.0000005802E-10  7.3919861282E+00
                      -1.0000005802E-10  2.0538509642E+00  1.0144465526E+01
                       2.0538509642E+00 -1.0000005802E-10  1.2833348659E+01
                      -1.0000005802E-10  2.0538509642E+00  1.5585828057E+01
                       2.0538509642E+00 -1.0000005802E-10  1.8274711190E+01
                       2.0538509642E+00 -1.0000005802E-10  2.5980923743E+01
                      -1.0000005802E-10  2.0538509642E+00  2.8974034570E+01
                       2.0538509642E+00  2.0538509642E+00  2.7477479156E+01
                      -1.0000005802E-10 -1.0000005802E-10  2.7477479156E+01
            xcart      3.8812158400E+00 -1.8897272293E-10  8.8183468067E+00
                      -1.8897272293E-10  3.8812158400E+00  1.4014394123E+01
                       3.8812158400E+00 -1.8897272293E-10  1.9090384987E+01
                      -1.8897272293E-10  3.8812158400E+00  2.4286432303E+01
                       3.8812158400E+00 -1.8897272293E-10  2.9362423167E+01
                      -1.8897272293E-10  3.8812158400E+00  3.4558470483E+01
                      -1.8897272293E-10  3.8812158400E+00  8.8783743507E+00
                       3.8812158400E+00 -1.8897272293E-10  1.3968829360E+01
                      -1.8897272293E-10  3.8812158400E+00  1.9170261609E+01
                       3.8812158400E+00 -1.8897272293E-10  2.4251514334E+01
                      -1.8897272293E-10  3.8812158400E+00  2.9452946582E+01
                       3.8812158400E+00 -1.8897272293E-10  3.4534199307E+01
                       3.8812158400E+00 -1.8897272293E-10  4.9096830554E+01
                      -1.8897272293E-10  3.8812158400E+00  5.4752990302E+01
                       3.8812158400E+00  3.8812158400E+00  5.1924910427E+01
                      -1.8897272293E-10 -1.8897272293E-10  5.1924910427E+01
             xred      4.9999999998E-01 -2.4344526395E-11  1.6105689859E-01
                      -2.4344526395E-11  4.9999999998E-01  2.5595668922E-01
                       4.9999999998E-01 -2.4344526395E-11  3.4866378770E-01
                      -2.4344526395E-11  4.9999999998E-01  4.4356357833E-01
                       4.9999999998E-01 -2.4344526395E-11  5.3627067681E-01
                      -2.4344526395E-11  4.9999999998E-01  6.3117046744E-01
                      -2.4344526395E-11  4.9999999998E-01  1.6215323221E-01
                       4.9999999998E-01 -2.4344526395E-11  2.5512450157E-01
                      -2.4344526395E-11  4.9999999998E-01  3.5012264175E-01
                       4.9999999998E-01 -2.4344526395E-11  4.4292584204E-01
                      -2.4344526395E-11  4.9999999998E-01  5.3792398222E-01
                       4.9999999998E-01 -2.4344526395E-11  6.3072718251E-01
                       4.9999999998E-01 -2.4344526395E-11  8.9669678830E-01
                      -2.4344526395E-11  4.9999999998E-01  1.0000000000E+00
                       4.9999999998E-01  4.9999999998E-01  9.4834839414E-01
                      -2.4344526395E-11 -2.4344526395E-11  9.4834839414E-01
            znucl       50.00000   34.00000   30.00000

================================================================================


- Timing analysis has been suppressed with timopt=0



================================================================================

 Suggested references for the acknowledgment of ABINIT usage.

 The users of ABINIT have little formal obligations with respect to the ABINIT group
 (those specified in the GNU General Public License, http://www.gnu.org/copyleft/gpl.txt).
 However, it is common practice in the scientific literature,
 to acknowledge the efforts of people that have made the research possible.
 In this spirit, please find below suggested citations of work written by ABINIT developers,
 corresponding to implementations inside of ABINIT that you have used in the present run.
 Note also that it will be of great value to readers of publications presenting these results,
 to read papers enabling them to understand the theoretical formalism and details
 of the ABINIT implementation.
 For information on why they are suggested, see also https://docs.abinit.org/theory/acknowledgments.
-
- [1] Libxc: A library of exchange and correlation functionals for density functional theory.
- M.A.L. Marques, M.J.T. Oliveira, T. Burnus, Computer Physics Communications 183, 2227 (2012).
- Comment: to be cited when LibXC is used (negative value of ixc)
- Strong suggestion to cite this paper.
- DOI and bibtex: see https://docs.abinit.org/theory/bibliography/#marques2012
-
- [2] The Abinit project: Impact, environment and recent developments.
- Computer Phys. Comm. 248, 107042 (2020).
- X.Gonze, B. Amadon, G. Antonius, F.Arnardi, L.Baguet, J.-M.Beuken,
- J.Bieder, F.Bottin, J.Bouchet, E.Bousquet, N.Brouwer, F.Bruneval,
- G.Brunin, T.Cavignac, J.-B. Charraud, Wei Chen, M.Cote, S.Cottenier,
- J.Denier, G.Geneste, Ph.Ghosez, M.Giantomassi, Y.Gillet, O.Gingras,
- D.R.Hamann, G.Hautier, Xu He, N.Helbig, N.Holzwarth, Y.Jia, F.Jollet,
- W.Lafargue-Dit-Hauret, K.Lejaeghere, M.A.L.Marques, A.Martin, C.Martins,
- H.P.C. Miranda, F.Naccarato, K. Persson, G.Petretto, V.Planes, Y.Pouillon,
- S.Prokhorenko, F.Ricci, G.-M.Rignanese, A.H.Romero, M.M.Schmitt, M.Torrent,
- M.J.van Setten, B.Van Troeye, M.J.Verstraete, G.Zerah and J.W.Zwanzig
- Comment: the fifth generic paper describing the ABINIT project.
- Note that a version of this paper, that is not formatted for Computer Phys. Comm. 
- is available at https://www.abinit.org/sites/default/files/ABINIT20.pdf .
- The licence allows the authors to put it on the Web.
- DOI and bibtex: see https://docs.abinit.org/theory/bibliography/#gonze2020
-
- [3] Optimized norm-conserving Vanderbilt pseudopotentials.
- D.R. Hamann, Phys. Rev. B 88, 085117 (2013).
- Comment: Some pseudopotential generated using the ONCVPSP code were used.
- DOI and bibtex: see https://docs.abinit.org/theory/bibliography/#hamann2013
-
- [4] ABINIT: Overview, and focus on selected capabilities
- J. Chem. Phys. 152, 124102 (2020).
- A. Romero, D.C. Allan, B. Amadon, G. Antonius, T. Applencourt, L.Baguet,
- J.Bieder, F.Bottin, J.Bouchet, E.Bousquet, F.Bruneval,
- G.Brunin, D.Caliste, M.Cote,
- J.Denier, C. Dreyer, Ph.Ghosez, M.Giantomassi, Y.Gillet, O.Gingras,
- D.R.Hamann, G.Hautier, F.Jollet, G. Jomard,
- A.Martin, 
- H.P.C. Miranda, F.Naccarato, G.Petretto, N.A. Pike, V.Planes,
- S.Prokhorenko, T. Rangel, F.Ricci, G.-M.Rignanese, M.Royo, M.Stengel, M.Torrent,
- M.J.van Setten, B.Van Troeye, M.J.Verstraete, J.Wiktor, J.W.Zwanziger, and X.Gonze.
- Comment: a global overview of ABINIT, with focus on selected capabilities .
- Note that a version of this paper, that is not formatted for J. Chem. Phys 
- is available at https://www.abinit.org/sites/default/files/ABINIT20_JPC.pdf .
- The licence allows the authors to put it on the Web.
- DOI and bibtex: see https://docs.abinit.org/theory/bibliography/#romero2020
-
- [5] Recent developments in the ABINIT software package.
- Computer Phys. Comm. 205, 106 (2016).
- X.Gonze, F.Jollet, F.Abreu Araujo, D.Adams, B.Amadon, T.Applencourt,
- C.Audouze, J.-M.Beuken, J.Bieder, A.Bokhanchuk, E.Bousquet, F.Bruneval
- D.Caliste, M.Cote, F.Dahm, F.Da Pieve, M.Delaveau, M.Di Gennaro,
- B.Dorado, C.Espejo, G.Geneste, L.Genovese, A.Gerossier, M.Giantomassi,
- Y.Gillet, D.R.Hamann, L.He, G.Jomard, J.Laflamme Janssen, S.Le Roux,
- A.Levitt, A.Lherbier, F.Liu, I.Lukacevic, A.Martin, C.Martins,
- M.J.T.Oliveira, S.Ponce, Y.Pouillon, T.Rangel, G.-M.Rignanese,
- A.H.Romero, B.Rousseau, O.Rubel, A.A.Shukri, M.Stankovski, M.Torrent,
- M.J.Van Setten, B.Van Troeye, M.J.Verstraete, D.Waroquier, J.Wiktor,
- B.Xu, A.Zhou, J.W.Zwanziger.
- Comment: the fourth generic paper describing the ABINIT project.
- Note that a version of this paper, that is not formatted for Computer Phys. Comm. 
- is available at https://www.abinit.org/sites/default/files/ABINIT16.pdf .
- The licence allows the authors to put it on the Web.
- DOI and bibtex: see https://docs.abinit.org/theory/bibliography/#gonze2016
-
- Proc.   0 individual time (sec): cpu=      18338.0  wall=      18360.2

================================================================================

 Calculation completed.
.Delivered   1 WARNINGs and   0 COMMENTs to log file.
+Overall time at end (sec) : cpu=      73353.2  wall=      73440.9
