  ABINIT 9.2.2
  
 DeprecationWarning: 

     The files file has been deprecated in Abinit9 and will be removed in Abinit10.
     Use the syntax `abinit t01.abi` where t01.abi is an input with pseudopotenials.

            pseudos = "al.psp8, as.psp8"


  Give name for formatted input file: 
Cs2TiI6.in
  Give name for formatted output file:
Cs2TiI6.out
  Give root name for generic input files:
Cs2TiI6i
  Give root name for generic output files:
Cs2TiI6o
  Give root name for generic temporary files:
Cs2TiI6

.Version 9.2.2 of ABINIT 
.(MPI version, prepared for a x86_64_linux_gnu9.3 computer) 

.Copyright (C) 1998-2020 ABINIT group . 
 ABINIT comes with ABSOLUTELY NO WARRANTY.
 It is free software, and you are welcome to redistribute it
 under certain conditions (GNU General Public License,
 see ~abinit/COPYING or http://www.gnu.org/copyleft/gpl.txt).

 ABINIT is a project of the Universite Catholique de Louvain,
 Corning Inc. and other collaborators, see ~abinit/doc/developers/contributors.txt .
 Please read https://docs.abinit.org/theory/acknowledgments for suggested
 acknowledgments of the ABINIT effort.
 For more information, see https://www.abinit.org .

.Starting date : Sun 17 Mar 2024.
- ( at 00h48 )
  
- The starting date is more than 3 years after the initial release
- of this version of ABINIT, namely Nov 2020.
- This version of ABINIT is not supported anymore.
- Action: please, switch to a more recent version of ABINIT.

 ++++++++++++++++++++++++++++++++++++++++++++++++++++++++++++++++++++++++++++++

 === Build Information === 
  Version       : 9.2.2
  Build target  : x86_64_linux_gnu9.3
  Build date    : 20210508

 === Compiler Suite === 
  C compiler       : gnu9.3
  C++ compiler     : gnu9.3
  Fortran compiler : gnu9.3
  CFLAGS           : -g -O2 -mtune=native -march=native
  CXXFLAGS         : -g -O2 -mtune=native -march=native
  FCFLAGS          : -g -ffree-line-length-none
  FC_LDFLAGS       : 

 === Optimizations === 
  Debug level        : basic
  Optimization level : standard
  Architecture       : unknown_unknown

 === Multicore === 
  Parallel build : yes
  Parallel I/O   : yes
  openMP support : 
  GPU support    : 

 === Connectors / Fallbacks === 
  LINALG flavor  : netlib
  FFT flavor     : goedecker
  HDF5           : yes
  NetCDF         : yes
  NetCDF Fortran : yes
  LibXC          : yes
  Wannier90      : no

 === Experimental features === 
  Exports             : 
  GW double-precision : 

 ++++++++++++++++++++++++++++++++++++++++++++++++++++++++++++++++++++++++++++++


 ++++++++++++++++++++++++++++++++++++++++++++++++++++++++++++++++++++++++++++++
 Default optimizations:
   -O2 -mtune=native -march=native


 Optimizations for 43_ptgroups:
   -O0


 ++++++++++++++++++++++++++++++++++++++++++++++++++++++++++++++++++++++++++++++


 ++++++++++++++++++++++++++++++++++++++++++++++++++++++++++++++++++++++++++++++
 CPP options activated during the build:

                    CC_GNU                   CXX_GNU                    FC_GNU
 
 HAVE_FC_ALLOCATABLE_DT...             HAVE_FC_ASYNC         HAVE_FC_BACKTRACE
 
  HAVE_FC_COMMAND_ARGUMENT      HAVE_FC_COMMAND_LINE        HAVE_FC_CONTIGUOUS
 
           HAVE_FC_CPUTIME              HAVE_FC_EXIT             HAVE_FC_FLUSH
 
             HAVE_FC_GAMMA            HAVE_FC_GETENV   HAVE_FC_IEEE_ARITHMETIC
 
   HAVE_FC_IEEE_EXCEPTIONS          HAVE_FC_INT_QUAD             HAVE_FC_IOMSG
 
     HAVE_FC_ISO_C_BINDING  HAVE_FC_ISO_FORTRAN_2008        HAVE_FC_LONG_LINES
 
        HAVE_FC_MOVE_ALLOC  HAVE_FC_ON_THE_FLY_SHAPE           HAVE_FC_PRIVATE
 
         HAVE_FC_PROTECTED           HAVE_FC_SHIFTLR         HAVE_FC_STREAM_IO
 
            HAVE_FC_SYSTEM          HAVE_FORTRAN2003                 HAVE_HDF5
 
        HAVE_LIBPAW_ABINIT      HAVE_LIBTETRA_ABINIT                HAVE_LIBXC
 
                  HAVE_MPI                 HAVE_MPI2       HAVE_MPI_IALLGATHER
 
       HAVE_MPI_IALLREDUCE        HAVE_MPI_IALLTOALL       HAVE_MPI_IALLTOALLV
 
           HAVE_MPI_IBCAST         HAVE_MPI_IGATHERV        HAVE_MPI_INTEGER16
 
               HAVE_MPI_IO HAVE_MPI_TYPE_CREATE_S...               HAVE_NETCDF
 
       HAVE_NETCDF_FORTRAN             HAVE_OS_LINUX         HAVE_TIMER_ABINIT
 
                  HAVE_XML                                                      
 ++++++++++++++++++++++++++++++++++++++++++++++++++++++++++++++++++++++++++++++

- input  file    -> Cs2TiI6.in
- output file    -> Cs2TiI6.out
- root for input  files -> Cs2TiI6i
- root for output files -> Cs2TiI6o

-instrng: 72 lines of input have been read from file Cs2TiI6.in


 Please give name of formatted atomic psp file (and finish with a newline character)
 For atom type 1, psp file is ../../../Psps_for_tests/ATOMICDATA_NC/Sn.psp8

 Please give name of formatted atomic psp file (and finish with a newline character)
 For atom type 2, psp file is ../../../Psps_for_tests/ATOMICDATA_NC/Se.psp8

 Please give name of formatted atomic psp file (and finish with a newline character)
 For atom type 3, psp file is ../../../Psps_for_tests/ATOMICDATA_NC/Zn.psp8
  read the values zionpsp= 14.0 , pspcod=   8 , lmax=   2
  read the values zionpsp= 16.0 , pspcod=   8 , lmax=   2
  read the values zionpsp= 20.0 , pspcod=   8 , lmax=   2

 inpspheads: deduce mpsang = 3, n1xccc = 2501.

======================================================= 
 invars1m : enter jdtset= 1

 symlatt: the Bravais lattice is tP (primitive tetragonal)
  xred   is defined in input file
 ingeo: takes atomic coordinates from input array xred

--- !WARNING
src_file: m_ingeo.F90
src_line: 887
message: |
    The tolerance on symmetries =   1.000E-05 is bigger than 1.0e-8.
    In order to avoid spurious effects, the atomic coordinates have been
    symmetrized before storing them in the dataset internal variable.
    So, do not be surprised by the fact that your input variables (xcart, xred, ...)
    do not correspond to the ones echoed by ABINIT, the latter being used to do the calculations.
    In order to avoid this symmetrization (e.g. for specific debugging/development), decrease tolsym to 1.0e-8 or lower.
...


 symlatt: the Bravais lattice is tP (primitive tetragonal)

 symlatt: the Bravais lattice is tP (primitive tetragonal)
 symspgr: spgroup=  99  P4 m m   (=C4v^1)
 symspgr: optical characteristics = uniaxial
 Optical axis (in reduced coordinates, real space ) :   0   0   1

======================================================= 
 invars1m : enter jdtset= 2

 symlatt: the Bravais lattice is tP (primitive tetragonal)
  xred   is defined in input file
 ingeo: takes atomic coordinates from input array xred

--- !WARNING
src_file: m_ingeo.F90
src_line: 887
message: |
    The tolerance on symmetries =   1.000E-05 is bigger than 1.0e-8.
    In order to avoid spurious effects, the atomic coordinates have been
    symmetrized before storing them in the dataset internal variable.
    So, do not be surprised by the fact that your input variables (xcart, xred, ...)
    do not correspond to the ones echoed by ABINIT, the latter being used to do the calculations.
    In order to avoid this symmetrization (e.g. for specific debugging/development), decrease tolsym to 1.0e-8 or lower.
...


 symlatt: the Bravais lattice is tP (primitive tetragonal)

 symlatt: the Bravais lattice is tP (primitive tetragonal)
 symspgr: spgroup=  99  P4 m m   (=C4v^1)
 symspgr: optical characteristics = uniaxial
 Optical axis (in reduced coordinates, real space ) :   0   0   1

======================================================= 
 invars1m : enter jdtset= 3

 symlatt: the Bravais lattice is tP (primitive tetragonal)
  xred   is defined in input file
 ingeo: takes atomic coordinates from input array xred

--- !WARNING
src_file: m_ingeo.F90
src_line: 887
message: |
    The tolerance on symmetries =   1.000E-05 is bigger than 1.0e-8.
    In order to avoid spurious effects, the atomic coordinates have been
    symmetrized before storing them in the dataset internal variable.
    So, do not be surprised by the fact that your input variables (xcart, xred, ...)
    do not correspond to the ones echoed by ABINIT, the latter being used to do the calculations.
    In order to avoid this symmetrization (e.g. for specific debugging/development), decrease tolsym to 1.0e-8 or lower.
...


 symlatt: the Bravais lattice is tP (primitive tetragonal)

 symlatt: the Bravais lattice is tP (primitive tetragonal)
 symspgr: spgroup=  99  P4 m m   (=C4v^1)
 symspgr: optical characteristics = uniaxial
 Optical axis (in reduced coordinates, real space ) :   0   0   1

--- !WARNING
src_file: m_mpinfo.F90
src_line: 2281
message: |
    nkpt*nsppol (10) is not a multiple of nproc_kpt (4)
    The k-point parallelisation is inefficient. (Ignore this warning if this is not a GS run)
...

 For input ecut=  2.250000E+01 best grid ngfft=      36      36     240
       max ecut=  2.370372E+01

 ==== FFT mesh ====
  FFT mesh divisions ........................    36   36  240
  Augmented FFT divisions ...................    37   37  240
  FFT algorithm .............................   112
  FFT cache size ............................    16
 getmpw: optimal value of mpw= 16850

--- !WARNING
src_file: m_mpinfo.F90
src_line: 2281
message: |
    nkpt*nsppol (57) is not a multiple of nproc_kpt (4)
    The k-point parallelisation is inefficient. (Ignore this warning if this is not a GS run)
...

 For input ecut=  2.250000E+01 best grid ngfft=      36      36     240
       max ecut=  2.370372E+01

 ==== FFT mesh ====
  FFT mesh divisions ........................    36   36  240
  Augmented FFT divisions ...................    37   37  240
  FFT algorithm .............................   112
  FFT cache size ............................    16
 getmpw: optimal value of mpw= 16901

--- !WARNING
src_file: m_mpinfo.F90
src_line: 2281
message: |
    nkpt*nsppol (10) is not a multiple of nproc_kpt (4)
    The k-point parallelisation is inefficient. (Ignore this warning if this is not a GS run)
...

 For input ecut=  2.250000E+01 best grid ngfft=      36      36     240
       max ecut=  2.370372E+01

 ==== FFT mesh ====
  FFT mesh divisions ........................    36   36  240
  Augmented FFT divisions ...................    37   37  240
  FFT algorithm .............................   112
  FFT cache size ............................    16
 getmpw: optimal value of mpw= 16850

 DATASET    1 : space group P4 m m (# 99); Bravais tP (primitive tetrag.)

 getdim_nloc : deduce lmnmax  =  18, lnmax  =   6,
                      lmnmaxso=  18, lnmaxso=   6.
memory: analysis of memory needs
================================================================================
 Values of the parameters that define the memory need for DATASET  1.
     intxc =       0    ionmov =       0      iscf =      17    lmnmax =       6
     lnmax =       6     mgfft =     240  mpssoang =       3    mqgrid =   11692
     natom =      16  nloc_mem =       1    nspden =       1   nspinor =       1
    nsppol =       1      nsym =       8    n1xccc =    2501    ntypat =       3
    occopt =       1   xclevel =       2
-    mband =         135        mffmem =           1         mkmem =           3
       mpw =       16850          nfft =      311040          nkpt =          10
================================================================================
P This job should need less than                     216.736 Mbytes of memory.
  Rough estimation (10% accuracy) of disk space for files :
_ WF disk file :    347.101 Mbytes ; DEN or POT disk file :      2.375 Mbytes.
================================================================================

 Biggest array : cg(disk), with    104.1318 MBytes.
 memana : allocated an array of    104.132 Mbytes, for testing purposes.
 memana: allocated     216.736Mbytes, for testing purposes. 
 The job will continue.

 DATASET    2 : space group P4 m m (# 99); Bravais tP (primitive tetrag.)

 getdim_nloc : deduce lmnmax  =  18, lnmax  =   6,
                      lmnmaxso=  18, lnmaxso=   6.
memory: analysis of memory needs
================================================================================
 Values of the parameters that define the memory need for DATASET  2.
     intxc =       0    ionmov =       0      iscf =      -2    lmnmax =       6
     lnmax =       6     mgfft =     240  mpssoang =       3    mqgrid =   11692
     natom =      16  nloc_mem =       1    nspden =       1   nspinor =       1
    nsppol =       1      nsym =       8    n1xccc =    2501    ntypat =       3
    occopt =       1   xclevel =       2
-    mband =         135        mffmem =           1         mkmem =          15
       mpw =       16901          nfft =      311040          nkpt =          57
================================================================================
P This job should need less than                     591.018 Mbytes of memory.
  Rough estimation (10% accuracy) of disk space for files :
_ WF disk file :   1984.456 Mbytes ; DEN or POT disk file :      2.375 Mbytes.
================================================================================

 Biggest array : cg(disk), with    522.2268 MBytes.
 memana : allocated an array of    522.227 Mbytes, for testing purposes.
 memana: allocated     591.018Mbytes, for testing purposes. 
 The job will continue.

 DATASET    3 : space group P4 m m (# 99); Bravais tP (primitive tetrag.)

 getdim_nloc : deduce lmnmax  =  18, lnmax  =   6,
                      lmnmaxso=  18, lnmaxso=   6.
memory: analysis of memory needs
================================================================================
 Values of the parameters that define the memory need for DATASET  3.
     intxc =       0    ionmov =       0      iscf =      -3    lmnmax =       6
     lnmax =       6     mgfft =     240  mpssoang =       3    mqgrid =   11692
     natom =      16  nloc_mem =       1    nspden =       1   nspinor =       1
    nsppol =       1      nsym =       8    n1xccc =    2501    ntypat =       3
    occopt =       1   xclevel =       2
-    mband =         135        mffmem =           1         mkmem =           3
       mpw =       16850          nfft =      311040          nkpt =          10
================================================================================
P This job should need less than                     169.275 Mbytes of memory.
  Rough estimation (10% accuracy) of disk space for files :
_ WF disk file :    347.101 Mbytes ; DEN or POT disk file :      2.375 Mbytes.
================================================================================

 Biggest array : cg(disk), with    104.1318 MBytes.
 memana : allocated an array of    104.132 Mbytes, for testing purposes.
 memana: allocated     169.275Mbytes, for testing purposes. 
 The job will continue.
--------------------------------------------------------------------------------
------------- Echo of variables that govern the present computation ------------
--------------------------------------------------------------------------------
-
- outvars: echo of selected default values                                      
-   iomode0 =  0 , fftalg0 =112 , wfoptalg0 =  0
-
- outvars: echo of global parameters not present in the input file              
-  max_nthreads =    0
-
 -outvars: echo values of preprocessed input variables --------
 
 These variables are accessible in NetCDF format (Cs2TiI6o_OUT.nc)

            acell      7.7624316804E+00  7.7624316804E+00  5.4752990302E+01 Bohr
              amu      1.18710000E+02  7.89600000E+01  6.53900000E+01
           diemac      1.20000000E+01
        dosdeltae1     0.00000000E+00 Hartree
        dosdeltae2     0.00000000E+00 Hartree
        dosdeltae3     1.00000000E-03 Hartree
             ecut      2.25000000E+01 Hartree
-          fftalg         112
           getden1          0
           getden2          1
           getden3          1
           getwfk1          0
           getwfk2          0
           getwfk3          1
           iatsph3       1    7   14   15
             iscf1         17
             iscf2         -2
             iscf3         -3
           istwfk2       7    0    0    0    0    0    0    0    0    0
                         4    0    0    0    0    0    0    0    0    0
                         0    0    2    0    0    0    0    0    0    0
                         0    0    0    0    0    0    0    0    0    0
                         9    0    0    0    0    0    0    0    8    0
              ixc     -101130
           jdtset        1    2    3
              kpt1     6.25000000E-02  6.25000000E-02  5.00000000E-01
                       1.87500000E-01  6.25000000E-02  5.00000000E-01
                       3.12500000E-01  6.25000000E-02  5.00000000E-01
                       4.37500000E-01  6.25000000E-02  5.00000000E-01
                       1.87500000E-01  1.87500000E-01  5.00000000E-01
                       3.12500000E-01  1.87500000E-01  5.00000000E-01
                       4.37500000E-01  1.87500000E-01  5.00000000E-01
                       3.12500000E-01  3.12500000E-01  5.00000000E-01
                       4.37500000E-01  3.12500000E-01  5.00000000E-01
                       4.37500000E-01  4.37500000E-01  5.00000000E-01
              kpt2     5.00000000E-01  5.00000000E-01  0.00000000E+00
                       4.50000000E-01  4.50000000E-01  5.00000000E-02
                       4.00000000E-01  4.00000000E-01  1.00000000E-01
                       3.50000000E-01  3.50000000E-01  1.50000000E-01
                       3.00000000E-01  3.00000000E-01  2.00000000E-01
                       2.50000000E-01  2.50000000E-01  2.50000000E-01
                       2.00000000E-01  2.00000000E-01  3.00000000E-01
                       1.50000000E-01  1.50000000E-01  3.50000000E-01
                       1.00000000E-01  1.00000000E-01  4.00000000E-01
                       5.00000000E-02  5.00000000E-02  4.50000000E-01
                       0.00000000E+00  0.00000000E+00  5.00000000E-01
                       0.00000000E+00  0.00000000E+00  4.58333333E-01
                       0.00000000E+00  0.00000000E+00  4.16666667E-01
                       0.00000000E+00  0.00000000E+00  3.75000000E-01
                       0.00000000E+00  0.00000000E+00  3.33333333E-01
                       0.00000000E+00  0.00000000E+00  2.91666667E-01
                       0.00000000E+00  0.00000000E+00  2.50000000E-01
                       0.00000000E+00  0.00000000E+00  2.08333333E-01
                       0.00000000E+00  0.00000000E+00  1.66666667E-01
                       0.00000000E+00  0.00000000E+00  1.25000000E-01
                       0.00000000E+00  0.00000000E+00  8.33333333E-02
                       0.00000000E+00  0.00000000E+00  4.16666667E-02
                       0.00000000E+00  0.00000000E+00  0.00000000E+00
                       2.77777778E-02  2.77777778E-02  2.77777778E-02
                       5.55555556E-02  5.55555556E-02  5.55555556E-02
                       8.33333333E-02  8.33333333E-02  8.33333333E-02
                       1.11111111E-01  1.11111111E-01  1.11111111E-01
                       1.38888889E-01  1.38888889E-01  1.38888889E-01
                       1.66666667E-01  1.66666667E-01  1.66666667E-01
                       1.94444444E-01  1.94444444E-01  1.94444444E-01
                       2.22222222E-01  2.22222222E-01  2.22222222E-01
                       2.50000000E-01  2.50000000E-01  2.50000000E-01
                       2.77777778E-01  2.77777778E-01  2.77777778E-01
                       3.05555556E-01  3.05555556E-01  3.05555556E-01
                       3.33333333E-01  3.33333333E-01  3.33333333E-01
                       3.61111111E-01  3.61111111E-01  3.61111111E-01
                       3.88888889E-01  3.88888889E-01  3.88888889E-01
                       4.16666667E-01  4.16666667E-01  4.16666667E-01
                       4.44444444E-01  4.44444444E-01  4.44444444E-01
                       4.72222222E-01  4.72222222E-01  4.72222222E-01
                       5.00000000E-01  5.00000000E-01  5.00000000E-01
                       4.37500000E-01  5.00000000E-01  5.00000000E-01
                       3.75000000E-01  5.00000000E-01  5.00000000E-01
                       3.12500000E-01  5.00000000E-01  5.00000000E-01
                       2.50000000E-01  5.00000000E-01  5.00000000E-01
                       1.87500000E-01  5.00000000E-01  5.00000000E-01
                       1.25000000E-01  5.00000000E-01  5.00000000E-01
                       6.25000000E-02  5.00000000E-01  5.00000000E-01
                       0.00000000E+00  5.00000000E-01  5.00000000E-01
                       0.00000000E+00  5.00000000E-01  4.37500000E-01
              kpt3     6.25000000E-02  6.25000000E-02  5.00000000E-01
                       1.87500000E-01  6.25000000E-02  5.00000000E-01
                       3.12500000E-01  6.25000000E-02  5.00000000E-01
                       4.37500000E-01  6.25000000E-02  5.00000000E-01
                       1.87500000E-01  1.87500000E-01  5.00000000E-01
                       3.12500000E-01  1.87500000E-01  5.00000000E-01
                       4.37500000E-01  1.87500000E-01  5.00000000E-01
                       3.12500000E-01  3.12500000E-01  5.00000000E-01
                       4.37500000E-01  3.12500000E-01  5.00000000E-01
                       4.37500000E-01  4.37500000E-01  5.00000000E-01
                       outvar_i_n : Printing only first  50 k-points.
           kptopt1          1
           kptopt2         -5
           kptopt3          1
         kptrlatt        8    0    0      0    8    0      0    0    1
          kptrlen1     6.20994534E+01
          kptrlen2     3.00000000E+01
          kptrlen3     6.20994534E+01
P           mkmem1          3
P           mkmem2         15
P           mkmem3          3
            natom          16
           natsph3       4
            nband1        135
            nband2        135
            nband3        135
           nbdbuf1          0
           nbdbuf2          2
           nbdbuf3          2
           ndtset           3
            ngfft          36      36     240
             nkpt1         10
             nkpt2         57
             nkpt3         10
            nstep1       1000
            nstep2        300
            nstep3        300
             nsym           8
           ntypat           3
              occ      2.000000  2.000000  2.000000  2.000000  2.000000  2.000000
                       2.000000  2.000000  2.000000  2.000000  2.000000  2.000000
                       2.000000  2.000000  2.000000  2.000000  2.000000  2.000000
                       2.000000  2.000000  2.000000  2.000000  2.000000  2.000000
                       2.000000  2.000000  2.000000  2.000000  2.000000  2.000000
                       2.000000  2.000000  2.000000  2.000000  2.000000  2.000000
                       2.000000  2.000000  2.000000  2.000000  2.000000  2.000000
                       2.000000  2.000000  2.000000  2.000000  2.000000  2.000000
                       2.000000  2.000000  2.000000  2.000000  2.000000  2.000000
                       2.000000  2.000000  2.000000  2.000000  2.000000  2.000000
                       2.000000  2.000000  2.000000  2.000000  2.000000  2.000000
                       2.000000  2.000000  2.000000  2.000000  2.000000  2.000000
                       2.000000  2.000000  2.000000  2.000000  2.000000  2.000000
                       2.000000  2.000000  2.000000  2.000000  2.000000  2.000000
                       2.000000  2.000000  2.000000  2.000000  2.000000  2.000000
                       2.000000  2.000000  2.000000  2.000000  2.000000  2.000000
                       2.000000  2.000000  2.000000  2.000000  2.000000  2.000000
                       2.000000  2.000000  2.000000  2.000000  2.000000  2.000000
                       2.000000  2.000000  2.000000  2.000000  2.000000  2.000000
                       2.000000  2.000000  2.000000  2.000000  2.000000  2.000000
                       2.000000  2.000000  2.000000  2.000000  2.000000  2.000000
                       0.000000  0.000000  0.000000  0.000000  0.000000  0.000000
                       0.000000  0.000000  0.000000
           prtcif           1
           prtdos1          0
           prtdos2          0
           prtdos3          3
           shiftk      5.00000000E-01  5.00000000E-01  5.00000000E-01
          spgroup          99
           symrel      1  0  0   0  1  0   0  0  1       1  0  0   0 -1  0   0  0  1
                      -1  0  0   0 -1  0   0  0  1      -1  0  0   0  1  0   0  0  1
                       0  1  0   1  0  0   0  0  1       0  1  0  -1  0  0   0  0  1
                       0 -1  0  -1  0  0   0  0  1       0 -1  0   1  0  0   0  0  1
            tnons      0.0000000  0.0000000  0.0000000     0.0000000 -0.0000000  0.0000000
                      -0.0000000 -0.0000000  0.0000000    -0.0000000  0.0000000  0.0000000
                       0.5000000  0.5000000  0.0000000     0.5000000  0.5000000  0.0000000
                       0.5000000  0.5000000  0.0000000     0.5000000  0.5000000  0.0000000
           tolwfr      1.00000000E-20
            typat      1  1  1  1  1  1  2  2  2  2  2  2  2  2  3  3
           vdw_xc           5
              wtk1       0.06250    0.12500    0.12500    0.12500    0.06250    0.12500
                         0.12500    0.06250    0.12500    0.06250
              wtk2       1.00000    1.00000    1.00000    1.00000    1.00000    1.00000
                         1.00000    1.00000    1.00000    1.00000    1.00000    1.00000
                         1.00000    1.00000    1.00000    1.00000    1.00000    1.00000
                         1.00000    1.00000    1.00000    1.00000    1.00000    1.00000
                         1.00000    1.00000    1.00000    1.00000    1.00000    1.00000
                         1.00000    1.00000    1.00000    1.00000    1.00000    1.00000
                         1.00000    1.00000    1.00000    1.00000    1.00000    1.00000
                         1.00000    1.00000    1.00000    1.00000    1.00000    1.00000
                         1.00000    1.00000
              wtk3       0.06250    0.12500    0.12500    0.12500    0.06250    0.12500
                         0.12500    0.06250    0.12500    0.06250
                       outvars : Printing only first  50 k-points.
           xangst      2.0538509642E+00 -1.0000005802E-10  4.6664681475E+00
                      -1.0000005802E-10  2.0538509642E+00  7.4160979620E+00
                       2.0538509642E+00 -1.0000005802E-10  1.0102196638E+01
                      -1.0000005802E-10  2.0538509642E+00  1.2851826453E+01
                       2.0538509642E+00 -1.0000005802E-10  1.5537925129E+01
                      -1.0000005802E-10  2.0538509642E+00  1.8287554943E+01
                      -1.0000005802E-10  2.0538509642E+00  4.6982333557E+00
                       2.0538509642E+00 -1.0000005802E-10  7.3919861282E+00
                      -1.0000005802E-10  2.0538509642E+00  1.0144465526E+01
                       2.0538509642E+00 -1.0000005802E-10  1.2833348659E+01
                      -1.0000005802E-10  2.0538509642E+00  1.5585828057E+01
                       2.0538509642E+00 -1.0000005802E-10  1.8274711190E+01
                       2.0538509642E+00 -1.0000005802E-10  2.5980923743E+01
                      -1.0000005802E-10  2.0538509642E+00  2.8974034570E+01
                       2.0538509642E+00  2.0538509642E+00  2.7477479156E+01
                      -1.0000005802E-10 -1.0000005802E-10  2.7477479156E+01
            xcart      3.8812158400E+00 -1.8897272293E-10  8.8183468067E+00
                      -1.8897272293E-10  3.8812158400E+00  1.4014394123E+01
                       3.8812158400E+00 -1.8897272293E-10  1.9090384987E+01
                      -1.8897272293E-10  3.8812158400E+00  2.4286432303E+01
                       3.8812158400E+00 -1.8897272293E-10  2.9362423167E+01
                      -1.8897272293E-10  3.8812158400E+00  3.4558470483E+01
                      -1.8897272293E-10  3.8812158400E+00  8.8783743507E+00
                       3.8812158400E+00 -1.8897272293E-10  1.3968829360E+01
                      -1.8897272293E-10  3.8812158400E+00  1.9170261609E+01
                       3.8812158400E+00 -1.8897272293E-10  2.4251514334E+01
                      -1.8897272293E-10  3.8812158400E+00  2.9452946582E+01
                       3.8812158400E+00 -1.8897272293E-10  3.4534199307E+01
                       3.8812158400E+00 -1.8897272293E-10  4.9096830554E+01
                      -1.8897272293E-10  3.8812158400E+00  5.4752990302E+01
                       3.8812158400E+00  3.8812158400E+00  5.1924910427E+01
                      -1.8897272293E-10 -1.8897272293E-10  5.1924910427E+01
             xred      4.9999999998E-01 -2.4344526395E-11  1.6105689859E-01
                      -2.4344526395E-11  4.9999999998E-01  2.5595668922E-01
                       4.9999999998E-01 -2.4344526395E-11  3.4866378770E-01
                      -2.4344526395E-11  4.9999999998E-01  4.4356357833E-01
                       4.9999999998E-01 -2.4344526395E-11  5.3627067681E-01
                      -2.4344526395E-11  4.9999999998E-01  6.3117046744E-01
                      -2.4344526395E-11  4.9999999998E-01  1.6215323221E-01
                       4.9999999998E-01 -2.4344526395E-11  2.5512450157E-01
                      -2.4344526395E-11  4.9999999998E-01  3.5012264175E-01
                       4.9999999998E-01 -2.4344526395E-11  4.4292584204E-01
                      -2.4344526395E-11  4.9999999998E-01  5.3792398222E-01
                       4.9999999998E-01 -2.4344526395E-11  6.3072718251E-01
                       4.9999999998E-01 -2.4344526395E-11  8.9669678830E-01
                      -2.4344526395E-11  4.9999999998E-01  1.0000000000E+00
                       4.9999999998E-01  4.9999999998E-01  9.4834839414E-01
                      -2.4344526395E-11 -2.4344526395E-11  9.4834839414E-01
            znucl       50.00000   34.00000   30.00000

================================================================================

 chkinp: Checking input parameters for consistency, jdtset=   1.

 chkinp: Checking input parameters for consistency, jdtset=   2.

 chkinp: Checking input parameters for consistency, jdtset=   3.
 DATA TYPE INFORMATION: 
 REAL:      Data type name: REAL(DP) 
            Kind value:      8
            Precision:      15
            Smallest nonnegligible quantity relative to 1: 0.22204460E-015
            Smallest positive number:                      0.22250739E-307
            Largest representable number:                  0.17976931E+309
 INTEGER:   Data type name: INTEGER(default) 
            Kind value: 4
            Bit size:   32
            Largest representable number: 2147483647
 LOGICAL:   Data type name: LOGICAL 
            Kind value: 4
 CHARACTER: Data type name: CHARACTER             Kind value: 1

  ==== OpenMP parallelism is OFF ====
 
  ==== Using MPI-2 specifications ==== 
  MPI-IO support is ON
  xmpi_tag_ub ................   2147483647
  xmpi_bsize_ch ..............            1
  xmpi_bsize_int .............            4
  xmpi_bsize_sp ..............            4
  xmpi_bsize_dp ..............            8
  xmpi_bsize_spc .............            8
  xmpi_bsize_dpc .............           16
  xmpio_bsize_frm ............            4
  xmpi_address_kind ..........            8
  xmpi_offset_kind ...........            8
  MPI_WTICK ..................    1.0000000000000001E-009

================================================================================
== DATASET  1 ==================================================================
-   mpi_nproc: 4, omp_nthreads: -1 (-1 if OMP is not activated)


--- !COMMENT
src_file: m_xgScalapack.F90
src_line: 236
message: |
    xgScalapack in auto mode
...


 getdim_nloc : deduce lmnmax  =  18, lnmax  =   6,
                      lmnmaxso=  18, lnmaxso=   6.
 Perdew, Burke & Ernzerhof
 J. P. Perdew, K. Burke, and M. Ernzerhof, Phys. Rev. Lett. 77, 3865 (1996)
 J. P. Perdew, K. Burke, and M. Ernzerhof, Phys. Rev. Lett. 78, 1396 (1997)
 Perdew, Burke & Ernzerhof
 J. P. Perdew, K. Burke, and M. Ernzerhof, Phys. Rev. Lett. 77, 3865 (1996)
 J. P. Perdew, K. Burke, and M. Ernzerhof, Phys. Rev. Lett. 78, 1396 (1997)

 Unit cell volume ucvol=  3.2991604E+03 bohr^3
 Angles (23,13,12)=  9.00000000E+01  9.00000000E+01  9.00000000E+01 degrees

 getcut: wavevector=  0.0000  0.0000  0.0000  ngfft=  36  36 240
         ecut(hartree)=     22.500   => boxcut(ratio)=   2.05280
- pspini: atom type   1  psp file is ../../../Psps_for_tests/ATOMICDATA_NC/Sn.psp8
- pspatm: opening atomic psp file    ../../../Psps_for_tests/ATOMICDATA_NC/Sn.psp8
- Sn    ONCVPSP  r_core=  2.27  2.62  1.86
- 50.00000  14.00000    150810                znucl, zion, pspdat
    8   11    2    4       600   0.00000      pspcod,pspxc,lmax,lloc,mmax,r2well

--- !WARNING
src_file: m_pspini.F90
src_line: 1036
message: |
    Pseudopotential file pspxc: 11, not equal to input ixc: -101130.
    These parameters must agree to get the same xc in ABINIT code as in psp construction.
    Action: check psp design or input file.
    Assume experienced user. Execution will continue.
...

    5.99000000000000    6.50000000000000    0.00000000000000   rchrg,fchrg,qchrg
     nproj     2     2     2
     extension_switch     1
  valence charge integrates to:    13.912521222389802     
  pspatm : epsatm=   32.65190642
         --- l  ekb(1:nproj) -->
             0    5.462393    0.682281
             1    4.443814    0.825686
             2   -5.382195   -1.704077
 pspatm: atomic psp has been read  and splines computed

- pspini: atom type   2  psp file is ../../../Psps_for_tests/ATOMICDATA_NC/Se.psp8
- pspatm: opening atomic psp file    ../../../Psps_for_tests/ATOMICDATA_NC/Se.psp8
- Se    ONCVPSP  r_core=  1.82  1.50  1.91
- 34.00000  16.00000    150729                znucl, zion, pspdat
    8   11    2    4       600   0.00000      pspcod,pspxc,lmax,lloc,mmax,r2well

--- !WARNING
src_file: m_pspini.F90
src_line: 1036
message: |
    Pseudopotential file pspxc: 11, not equal to input ixc: -101130.
    These parameters must agree to get the same xc in ABINIT code as in psp construction.
    Action: check psp design or input file.
    Assume experienced user. Execution will continue.
...

    5.99000000000000    5.00000000000000    0.00000000000000   rchrg,fchrg,qchrg
     nproj     2     2     2
     extension_switch     1
  valence charge integrates to:    15.981819523532332     
  pspatm : epsatm=   29.53325930
         --- l  ekb(1:nproj) -->
             0    8.612261    0.939919
             1    6.984962    1.281898
             2   -9.322521   -3.856218
 pspatm: atomic psp has been read  and splines computed

- pspini: atom type   3  psp file is ../../../Psps_for_tests/ATOMICDATA_NC/Zn.psp8
- pspatm: opening atomic psp file    ../../../Psps_for_tests/ATOMICDATA_NC/Zn.psp8
- Zn    ONCVPSP  r_core=  1.36  1.66  1.85
- 30.00000  20.00000    161102                znucl, zion, pspdat
    8   11    2    4       600   0.00000      pspcod,pspxc,lmax,lloc,mmax,r2well

--- !WARNING
src_file: m_pspini.F90
src_line: 1036
message: |
    Pseudopotential file pspxc: 11, not equal to input ixc: -101130.
    These parameters must agree to get the same xc in ABINIT code as in psp construction.
    Action: check psp design or input file.
    Assume experienced user. Execution will continue.
...

    5.99000000000000    2.50000000000000    0.00000000000000   rchrg,fchrg,qchrg
     nproj     2     2     2
     extension_switch     1
  valence charge integrates to:    19.977025053306086     
  pspatm : epsatm=   26.67245340
         --- l  ekb(1:nproj) -->
             0    2.404235   -1.533451
             1   -4.677427   -1.530630
             2   -7.000316   -2.622858
 pspatm: atomic psp has been read  and splines computed

   1.22351650E+05                                ecore*ucvol(ha*bohr**3)
 ==== Info on pseudopotentials ====
  Norm-conserving pseudopotentials
  Number of pseudopotentials ..    3
  Number of types of atoms   ..    3
  Scalar calculation (no spin-orbit term)
  Nonlocal part applied using Legendre polynomials
  Max number of non-local projectors over l and type   2
  Highest angular momentum +1 .......   3
  Max number of (l,n)   components ..   6
  Max number of (l,m,n) components ..   6

 Pseudo-Core Charge Info: 
   Number of radial points for pseudo-core charge .. 2501
   XC core-correction treatment (optnlxccc) ........    1
   Radius for pseudo-core charge for each type ..... 

  - Atom type    1 has pseudo-core radius ..  5.9900
  - Atom type    2 has pseudo-core radius ..  5.9900
  - Atom type    3 has pseudo-core radius ..  5.9900

 Info on the Q-grid used for form factors in spline form: 
   Number of q-points for radial functions ffspl ..  11692
   Number of q-points for vlspl ...................  11692
   vloc is computed in Reciprocal Space
   model core charge treated in real-space

  XC functional for type 1 is 11
  Pseudo valence available: yes
  XC functional for type 2 is 11
  Pseudo valence available: yes
  XC functional for type 3 is 11
  Pseudo valence available: yes

 wfconv:   135 bands initialized randomly with npw= 16850, for ikpt=     1
 wfconv:   135 bands initialized randomly with npw= 16826, for ikpt=     2
 wfconv:   135 bands initialized randomly with npw= 16800, for ikpt=     3
_setup2: Arith. and geom. avg. npw (full set) are   16814.375   16814.366
 initro: for itypat=  1, take pseudo charge density from pp file
 initro: for itypat=  2, take pseudo charge density from pp file
 initro: for itypat=  3, take pseudo charge density from pp file

================================================================================

 getcut: wavevector=  0.0000  0.0000  0.0000  ngfft=  36  36 240
         ecut(hartree)=     22.500   => boxcut(ratio)=   2.05280

 1/G**2 cut-off applied in the following step : cutoff-mode = CRYSTAL

  --------------------------------------------------------------
  Van der Waals DFT-D2 semi-empirical dispersion potential added
      with following parameters:
      Specie  C6 (J.nm^6.mol^-1)  R0 (Ang)
      ------------------------------------
         Sn           38.71         1.804
         Se           12.64         1.771
         Zn           10.80         1.562

      Scaling factor   =   0.75
      Damping parameter=  20.00
      Cut-off radius   = 130.92 bohr

      Number of pairs contributing =   388936
      DFT-D2 energy contribution   =   -1.86845E-01 Ha
  --------------------------------------------------------------


 1/G**2 cut-off applied in the following step : cutoff-mode = CRYSTAL

 1/G**2 cut-off applied in the following step : cutoff-mode = CRYSTAL

--- !WARNING
src_file: m_drivexc.F90
src_line: 707
message: |
    Density went too small (lower than xc_denpos) at 9111 points
    and was set to xc_denpos =   1.00E-14. Lowest was  -0.85E-03.
    Likely due to too low boxcut or too low ecut for pseudopotential core charge.
...


 ITER STEP NUMBER     1
 vtorho: nnsclo_now = 2, note that nnsclo, dbl_nnsclo, istep= 0 0 1
 Total charge density [el/Bohr^3]
      Maximum=    3.2645E+00  at reduced coord.    0.0000    0.9722    0.9417
      Minimum=    2.5626E-03  at reduced coord.    0.5000    0.0000    0.7708
   Integrated=    2.5200E+02
 ETOT  1  -1830.4635905819    -1.830E+03 8.054E-01 1.841E+03
 scprqt: <Vxc>= -3.2247909E-01 hartree

 Simple mixing update:
  residual square of the potential:    1209.5478645098772

 1/G**2 cut-off applied in the following step : cutoff-mode = CRYSTAL

--- !WARNING
src_file: m_drivexc.F90
src_line: 707
message: |
    Density went too small (lower than xc_denpos) at 562 points
    and was set to xc_denpos =   1.00E-14. Lowest was  -0.81E-04.
    Likely due to too low boxcut or too low ecut for pseudopotential core charge.
...

 scfcv_core: previous iteration took 01:58 [minutes]

 ITER STEP NUMBER     2
 vtorho: nnsclo_now = 2, note that nnsclo, dbl_nnsclo, istep= 0 0 2
 Total charge density [el/Bohr^3]
      Maximum=    5.9878E+00  at reduced coord.    0.5278    0.5278    0.9417
      Minimum=    3.5064E-04  at reduced coord.    0.0000    0.0000    0.5000
   Integrated=    2.5200E+02
 ETOT  2  -1985.3010845343    -1.548E+02 3.552E-01 7.738E+03
 scprqt: <Vxc>= -3.3606901E-01 hartree

 Pulay update with  1 previous iterations:
 mixing of old trial potential: alpha(m:m-4)=  0.359      0.641

--- !WARNING
src_file: m_drivexc.F90
src_line: 707
message: |
    Density went too small (lower than xc_denpos) at 29573 points
    and was set to xc_denpos =   1.00E-14. Lowest was  -0.10E-02.
    Likely due to too low boxcut or too low ecut for pseudopotential core charge.
...

 scfcv_core: previous iteration took 01:55 [minutes]

 ITER STEP NUMBER     3
 vtorho: nnsclo_now = 1, note that nnsclo, dbl_nnsclo, istep= 0 0 3
 Total charge density [el/Bohr^3]
      Maximum=    3.5959E+00  at reduced coord.    0.5000    0.5000    0.9583
      Minimum=    2.0564E-03  at reduced coord.    0.0000    0.5000    0.7583
   Integrated=    2.5200E+02
 ETOT  3  -1835.4845729068     1.498E+02 2.018E+01 2.612E+03
 scprqt: <Vxc>= -3.3495302E-01 hartree

 Pulay update with  2 previous iterations:
 mixing of old trial potential: alpha(m:m-4)=  0.170      0.331      0.499

--- !WARNING
src_file: m_drivexc.F90
src_line: 707
message: |
    Density went too small (lower than xc_denpos) at 22383 points
    and was set to xc_denpos =   1.00E-14. Lowest was  -0.91E-03.
    Likely due to too low boxcut or too low ecut for pseudopotential core charge.
...

 scfcv_core: previous iteration took 01:01 [minutes]

 ITER STEP NUMBER     4
 vtorho: nnsclo_now = 1, note that nnsclo, dbl_nnsclo, istep= 0 0 4
 Total charge density [el/Bohr^3]
      Maximum=    3.3147E+00  at reduced coord.    0.5000    0.4722    0.9417
      Minimum=    1.4453E-04  at reduced coord.    0.0000    0.0000    0.8167
   Integrated=    2.5200E+02
 ETOT  4  -1977.0948408301    -1.416E+02 3.017E+00 4.340E+03
 scprqt: <Vxc>= -3.4343561E-01 hartree

 Pulay update with  3 previous iterations:
 mixing of old trial potential: alpha(m:m-4)=  0.439     -0.297      0.384      0.474

--- !WARNING
src_file: m_drivexc.F90
src_line: 707
message: |
    Density went too small (lower than xc_denpos) at 17469 points
    and was set to xc_denpos =   1.00E-14. Lowest was  -0.84E-03.
    Likely due to too low boxcut or too low ecut for pseudopotential core charge.
...

 scfcv_core: previous iteration took 59.04 [s]

 ITER STEP NUMBER     5
 vtorho: nnsclo_now = 1, note that nnsclo, dbl_nnsclo, istep= 0 0 5
 Total charge density [el/Bohr^3]
      Maximum=    3.4375E+00  at reduced coord.    0.5278    0.5000    0.9542
      Minimum=    4.4895E-05  at reduced coord.    0.0000    0.0000    0.7917
   Integrated=    2.5200E+02
 ETOT  5  -1872.6079980137     1.045E+02 1.277E+00 2.168E+03
 scprqt: <Vxc>= -3.4429758E-01 hartree

 Pulay update with  4 previous iterations:
 mixing of old trial potential: alpha(m:m-4)=  0.952     -0.915E-01 -0.395      0.336      0.199

--- !WARNING
src_file: m_drivexc.F90
src_line: 707
message: |
    Density went too small (lower than xc_denpos) at 11644 points
    and was set to xc_denpos =   1.00E-14. Lowest was  -0.56E-03.
    Likely due to too low boxcut or too low ecut for pseudopotential core charge.
...

 scfcv_core: previous iteration took 58.28 [s]

 ITER STEP NUMBER     6
 vtorho: nnsclo_now = 1, note that nnsclo, dbl_nnsclo, istep= 0 0 6
 Total charge density [el/Bohr^3]
      Maximum=    4.3599E+00  at reduced coord.    0.5000    0.5000    0.9583
      Minimum=    5.3813E-04  at reduced coord.    0.0000    0.5000    0.8000
   Integrated=    2.5200E+02
 ETOT  6  -1811.6614435156     6.095E+01 1.193E+01 2.154E+03
 scprqt: <Vxc>= -3.4243511E-01 hartree

 Pulay update with  5 previous iterations:
 mixing of old trial potential: alpha(m:m-4)=  0.174      0.843      0.364E-02 -0.425      0.248

--- !WARNING
src_file: m_drivexc.F90
src_line: 707
message: |
    Density went too small (lower than xc_denpos) at 10273 points
    and was set to xc_denpos =   1.00E-14. Lowest was  -0.41E-03.
    Likely due to too low boxcut or too low ecut for pseudopotential core charge.
...

 scfcv_core: previous iteration took 01:00 [minutes]

 ITER STEP NUMBER     7
 vtorho: nnsclo_now = 1, note that nnsclo, dbl_nnsclo, istep= 0 0 7
 Total charge density [el/Bohr^3]
      Maximum=    5.0511E+00  at reduced coord.    0.0000    0.9444    0.9542
      Minimum=    1.0029E-03  at reduced coord.    0.0556    0.4444    0.7750
   Integrated=    2.5200E+02
 ETOT  7  -1877.6274991298    -6.597E+01 8.791E-01 2.290E+03
 scprqt: <Vxc>= -3.4328049E-01 hartree

 Pulay update with  6 previous iterations:
 mixing of old trial potential: alpha(m:m-4)=  0.373     -0.363E-01  0.523      0.814E-01 -0.248

--- !WARNING
src_file: m_drivexc.F90
src_line: 707
message: |
    Density went too small (lower than xc_denpos) at 10836 points
    and was set to xc_denpos =   1.00E-14. Lowest was  -0.40E-03.
    Likely due to too low boxcut or too low ecut for pseudopotential core charge.
...

 scfcv_core: previous iteration took 59.50 [s]

 ITER STEP NUMBER     8
 vtorho: nnsclo_now = 1, note that nnsclo, dbl_nnsclo, istep= 0 0 8
 Total charge density [el/Bohr^3]
      Maximum=    4.6915E+00  at reduced coord.    0.5000    0.4444    0.9542
      Minimum=    4.3406E-04  at reduced coord.    0.0000    0.5000    0.7958
   Integrated=    2.5200E+02
 ETOT  8  -1851.3421330940     2.629E+01 1.613E+00 9.392E+02
 scprqt: <Vxc>= -3.4399861E-01 hartree

 Pulay update with  7 previous iterations:
 mixing of old trial potential: alpha(m:m-4)=  0.222      0.152     -0.459E-02  0.389      0.886E-01

--- !WARNING
src_file: m_drivexc.F90
src_line: 707
message: |
    Density went too small (lower than xc_denpos) at 9058 points
    and was set to xc_denpos =   1.00E-14. Lowest was  -0.27E-03.
    Likely due to too low boxcut or too low ecut for pseudopotential core charge.
...

 scfcv_core: previous iteration took 57.25 [s]

 ITER STEP NUMBER     9
 vtorho: nnsclo_now = 1, note that nnsclo, dbl_nnsclo, istep= 0 0 9
 Total charge density [el/Bohr^3]
      Maximum=    4.7325E+00  at reduced coord.    0.5000    0.4444    0.9542
      Minimum=    6.1401E-05  at reduced coord.    0.0000    0.5000    0.7958
   Integrated=    2.5200E+02
 ETOT  9  -1861.4961979396    -1.015E+01 1.518E-01 8.335E+02
 scprqt: <Vxc>= -3.4247818E-01 hartree

 Pulay update with  7 previous iterations:
 mixing of old trial potential: alpha(m:m-4)=  0.120     -0.148E-01  0.204      0.465E-01  0.881

--- !WARNING
src_file: m_drivexc.F90
src_line: 707
message: |
    Density went too small (lower than xc_denpos) at 6489 points
    and was set to xc_denpos =   1.00E-14. Lowest was  -0.24E-03.
    Likely due to too low boxcut or too low ecut for pseudopotential core charge.
...

 scfcv_core: previous iteration took 01:00 [minutes]

 ITER STEP NUMBER    10
 vtorho: nnsclo_now = 1, note that nnsclo, dbl_nnsclo, istep= 0 0 10
 Total charge density [el/Bohr^3]
      Maximum=    4.8699E+00  at reduced coord.    0.0000    0.9444    0.9542
      Minimum=    5.3861E-04  at reduced coord.    0.0000    0.5000    0.7750
   Integrated=    2.5200E+02
 ETOT 10  -1893.8410688660    -3.234E+01 4.776E-01 1.580E+03
 scprqt: <Vxc>= -3.4425583E-01 hartree

 Pulay update with  7 previous iterations:
 mixing of old trial potential: alpha(m:m-4)=  0.499     -0.209     -0.233      0.372     -0.741E-03

--- !WARNING
src_file: m_drivexc.F90
src_line: 707
message: |
    Density went too small (lower than xc_denpos) at 13542 points
    and was set to xc_denpos =   1.00E-14. Lowest was  -0.64E-03.
    Likely due to too low boxcut or too low ecut for pseudopotential core charge.
...

 scfcv_core: previous iteration took 57.49 [s]

 ITER STEP NUMBER    11
 vtorho: nnsclo_now = 1, note that nnsclo, dbl_nnsclo, istep= 0 0 11
 Total charge density [el/Bohr^3]
      Maximum=    4.6873E+00  at reduced coord.    0.0000    0.9444    0.9542
      Minimum=    1.1605E-04  at reduced coord.    0.0000    0.4444    0.7917
   Integrated=    2.5200E+02
 ETOT 11  -1862.2745409586     3.157E+01 6.952E-01 1.229E+03
 scprqt: <Vxc>= -3.4563556E-01 hartree

 Pulay update with  7 previous iterations:
 mixing of old trial potential: alpha(m:m-4)=  0.914      0.448     -0.327      -1.16      0.483

--- !WARNING
src_file: m_drivexc.F90
src_line: 707
message: |
    Density went too small (lower than xc_denpos) at 13290 points
    and was set to xc_denpos =   1.00E-14. Lowest was  -0.72E-03.
    Likely due to too low boxcut or too low ecut for pseudopotential core charge.
...

 scfcv_core: previous iteration took 59.76 [s]

 ITER STEP NUMBER    12
 vtorho: nnsclo_now = 1, note that nnsclo, dbl_nnsclo, istep= 0 0 12
 Total charge density [el/Bohr^3]
      Maximum=    4.9197E+00  at reduced coord.    0.5278    0.5556    0.9458
      Minimum=    5.9144E-05  at reduced coord.    0.0000    0.5000    0.7958
   Integrated=    2.5200E+02
 ETOT 12  -1875.5923673031    -1.332E+01 1.149E-01 1.731E+03
 scprqt: <Vxc>= -3.4878862E-01 hartree

 Pulay update with  7 previous iterations:
 mixing of old trial potential: alpha(m:m-4)=  0.791      0.667      0.338     -0.613      -1.50

--- !WARNING
src_file: m_drivexc.F90
src_line: 707
message: |
    Density went too small (lower than xc_denpos) at 13378 points
    and was set to xc_denpos =   1.00E-14. Lowest was  -0.66E-03.
    Likely due to too low boxcut or too low ecut for pseudopotential core charge.
...

 scfcv_core: previous iteration took 57.71 [s]

 ITER STEP NUMBER    13
 vtorho: nnsclo_now = 1, note that nnsclo, dbl_nnsclo, istep= 0 0 13
 Total charge density [el/Bohr^3]
      Maximum=    5.0782E+00  at reduced coord.    0.0000    0.9444    0.9542
      Minimum=    4.7027E-05  at reduced coord.    0.1111    0.3889    0.8000
   Integrated=    2.5200E+02
 ETOT 13  -1902.7843414971    -2.719E+01 1.589E+00 2.553E+03
 scprqt: <Vxc>= -3.5174272E-01 hartree

 Pulay update with  7 previous iterations:
 mixing of old trial potential: alpha(m:m-4)=  -1.00     -0.280      0.342     -0.294E-01   1.76

--- !WARNING
src_file: m_drivexc.F90
src_line: 707
message: |
    Density went too small (lower than xc_denpos) at 37423 points
    and was set to xc_denpos =   1.00E-14. Lowest was  -0.30E-02.
    Likely due to too low boxcut or too low ecut for pseudopotential core charge.
...

 scfcv_core: previous iteration took 56.96 [s]

 ITER STEP NUMBER    14
 vtorho: nnsclo_now = 1, note that nnsclo, dbl_nnsclo, istep= 0 0 14
 Total charge density [el/Bohr^3]
      Maximum=    3.2968E+00  at reduced coord.    0.5000    0.4722    0.9417
      Minimum=    7.6724E-05  at reduced coord.    0.0000    0.4444    0.7792
   Integrated=    2.5200E+02
 ETOT 14  -1883.7021294884     1.908E+01 4.259E+00 2.100E+03
 scprqt: <Vxc>= -3.0761095E-01 hartree

 Pulay update with  7 previous iterations:
 mixing of old trial potential: alpha(m:m-4)=  0.314     -0.379      0.238     -0.124     -0.467
 scfcv_core: previous iteration took 59.71 [s]

 ITER STEP NUMBER    15
 vtorho: nnsclo_now = 1, note that nnsclo, dbl_nnsclo, istep= 0 0 15
 Total charge density [el/Bohr^3]
      Maximum=    3.8646E+00  at reduced coord.    0.0278    0.9722    0.9417
      Minimum=    2.2807E-04  at reduced coord.    0.0000    0.4167    0.7708
   Integrated=    2.5200E+02
 ETOT 15  -1841.0532697890     4.265E+01 2.389E+00 1.299E+02
 scprqt: <Vxc>= -3.2943855E-01 hartree

 Pulay update with  7 previous iterations:
 mixing of old trial potential: alpha(m:m-4)=  0.330      0.167     -0.147      0.162     -0.406
 scfcv_core: previous iteration took 59.59 [s]

 ITER STEP NUMBER    16
 vtorho: nnsclo_now = 1, note that nnsclo, dbl_nnsclo, istep= 0 0 16
 Total charge density [el/Bohr^3]
      Maximum=    4.4684E+00  at reduced coord.    0.5000    0.4444    0.9542
      Minimum=    1.3097E-04  at reduced coord.    0.3333    0.1667    0.7583
   Integrated=    2.5200E+02
 ETOT 16  -1853.6904000868    -1.264E+01 7.106E-01 2.266E+02
 scprqt: <Vxc>= -3.2935512E-01 hartree

 Pulay update with  7 previous iterations:
 mixing of old trial potential: alpha(m:m-4)=  0.807     -0.796E-01  0.248     -0.182      0.231
 scfcv_core: previous iteration took 57.23 [s]

 ITER STEP NUMBER    17
 vtorho: nnsclo_now = 1, note that nnsclo, dbl_nnsclo, istep= 0 0 17
 Total charge density [el/Bohr^3]
      Maximum=    4.2623E+00  at reduced coord.    0.5000    0.5556    0.9542
      Minimum=    1.0214E-04  at reduced coord.    0.0000    0.5000    0.7625
   Integrated=    2.5200E+02
 ETOT 17  -1851.1427667796     2.548E+00 4.018E-01 1.009E+02
 scprqt: <Vxc>= -3.2752579E-01 hartree

 Pulay update with  7 previous iterations:
 mixing of old trial potential: alpha(m:m-4)=  0.243      0.577     -0.796E-01  0.230     -0.156
 scfcv_core: previous iteration took 58.46 [s]

 ITER STEP NUMBER    18
 vtorho: nnsclo_now = 1, note that nnsclo, dbl_nnsclo, istep= 0 0 18
 Total charge density [el/Bohr^3]
      Maximum=    4.2507E+00  at reduced coord.    0.5556    0.5000    0.9542
      Minimum=    2.4158E-05  at reduced coord.    0.0000    0.5000    0.7625
   Integrated=    2.5200E+02
 ETOT 18  -1851.2562501800    -1.135E-01 2.174E-02 5.942E+01
 scprqt: <Vxc>= -3.2857876E-01 hartree

 Pulay update with  7 previous iterations:
 mixing of old trial potential: alpha(m:m-4)=  0.686     -0.165      0.388     -0.133      0.218
 scfcv_core: previous iteration took 56.44 [s]

 ITER STEP NUMBER    19
 vtorho: nnsclo_now = 1, note that nnsclo, dbl_nnsclo, istep= 0 0 19
 Total charge density [el/Bohr^3]
      Maximum=    4.1597E+00  at reduced coord.    0.5000    0.5556    0.9542
      Minimum=    2.3976E-05  at reduced coord.    0.4167    0.0000    0.7917
   Integrated=    2.5200E+02
 ETOT 19  -1853.4988128255    -2.243E+00 1.663E-01 1.027E+02
 scprqt: <Vxc>= -3.2510265E-01 hartree

 Pulay update with  7 previous iterations:
 mixing of old trial potential: alpha(m:m-4)=  0.136      0.648     -0.305      0.429     -0.158
 scfcv_core: previous iteration took 01:00 [minutes]

 ITER STEP NUMBER    20
 vtorho: nnsclo_now = 1, note that nnsclo, dbl_nnsclo, istep= 0 0 20
 Total charge density [el/Bohr^3]
      Maximum=    4.1863E+00  at reduced coord.    0.5000    0.5556    0.9542
      Minimum=    1.2000E-05  at reduced coord.    0.0000    0.0000    0.7833
   Integrated=    2.5200E+02
 ETOT 20  -1851.9143857754     1.584E+00 2.561E-02 6.604E+01
 scprqt: <Vxc>= -3.2549485E-01 hartree

 Pulay update with  7 previous iterations:
 mixing of old trial potential: alpha(m:m-4)=   1.56     -0.381      0.796      -1.20      0.277
 scfcv_core: previous iteration took 59.51 [s]

 ITER STEP NUMBER    21
 vtorho: nnsclo_now = 1, note that nnsclo, dbl_nnsclo, istep= 0 0 21
 Total charge density [el/Bohr^3]
      Maximum=    4.1343E+00  at reduced coord.    0.0000    0.9444    0.9542
      Minimum=    5.1103E-05  at reduced coord.    0.0000    0.5000    0.7958
   Integrated=    2.5200E+02
 ETOT 21  -1851.0505055103     8.639E-01 5.643E-02 1.476E+01
 scprqt: <Vxc>= -3.2324955E-01 hartree

 Pulay update with  7 previous iterations:
 mixing of old trial potential: alpha(m:m-4)=  0.431      0.898     -0.273      0.489     -0.719
 scfcv_core: previous iteration took 01:06 [minutes]

 ITER STEP NUMBER    22
 vtorho: nnsclo_now = 1, note that nnsclo, dbl_nnsclo, istep= 0 0 22
 Total charge density [el/Bohr^3]
      Maximum=    4.1179E+00  at reduced coord.    0.0000    0.9444    0.9542
      Minimum=    1.9258E-05  at reduced coord.    0.0000    0.4444    0.7917
   Integrated=    2.5200E+02
 ETOT 22  -1850.8432559898     2.072E-01 2.648E-02 3.864E+00
 scprqt: <Vxc>= -3.2270450E-01 hartree

 Pulay update with  7 previous iterations:
 mixing of old trial potential: alpha(m:m-4)=   1.17      0.254      0.778E-01 -0.125     -0.324
 scfcv_core: previous iteration took 56.82 [s]

 ITER STEP NUMBER    23
 vtorho: nnsclo_now = 1, note that nnsclo, dbl_nnsclo, istep= 0 0 23
 Total charge density [el/Bohr^3]
      Maximum=    3.9972E+00  at reduced coord.    0.0000    0.9444    0.9542
      Minimum=    1.5092E-05  at reduced coord.    0.0556    0.4167    0.7750
   Integrated=    2.5200E+02
 ETOT 23  -1850.9739609589    -1.307E-01 2.182E-02 1.475E+01
 scprqt: <Vxc>= -3.1860197E-01 hartree

 Pulay update with  7 previous iterations:
 mixing of old trial potential: alpha(m:m-4)=  0.708     -0.159      0.234     -0.121      0.388E-01
 scfcv_core: previous iteration took 58.77 [s]

 ITER STEP NUMBER    24
 vtorho: nnsclo_now = 1, note that nnsclo, dbl_nnsclo, istep= 0 0 24
 Total charge density [el/Bohr^3]
      Maximum=    4.0830E+00  at reduced coord.    0.5000    0.5000    0.9583
      Minimum=    2.3224E-05  at reduced coord.    0.0000    0.4444    0.7792
   Integrated=    2.5200E+02
 ETOT 24  -1851.0957924208    -1.218E-01 2.101E-02 9.753E+00
 scprqt: <Vxc>= -3.2142395E-01 hartree

 Pulay update with  7 previous iterations:
 mixing of old trial potential: alpha(m:m-4)=  0.507      0.229      0.343      0.494E-01 -0.207
 scfcv_core: previous iteration took 01:12 [minutes]

 ITER STEP NUMBER    25
 vtorho: nnsclo_now = 1, note that nnsclo, dbl_nnsclo, istep= 0 0 25
 Total charge density [el/Bohr^3]
      Maximum=    4.1003E+00  at reduced coord.    0.0000    0.9444    0.9542
      Minimum=    1.3274E-05  at reduced coord.    0.0556    0.4167    0.7750
   Integrated=    2.5200E+02
 ETOT 25  -1850.9013961642     1.944E-01 2.010E-02 2.723E+00
 scprqt: <Vxc>= -3.2038186E-01 hartree

 Pulay update with  7 previous iterations:
 mixing of old trial potential: alpha(m:m-4)=  0.511      0.368      0.122     -0.493E-01  0.801E-01
 scfcv_core: previous iteration took 59.95 [s]

 ITER STEP NUMBER    26
 vtorho: nnsclo_now = 1, note that nnsclo, dbl_nnsclo, istep= 0 0 26
 Total charge density [el/Bohr^3]
      Maximum=    4.1026E+00  at reduced coord.    0.0000    0.9444    0.9542
      Minimum=    1.7371E-05  at reduced coord.    0.0000    0.4444    0.7917
   Integrated=    2.5200E+02
 ETOT 26  -1850.8241275609     7.727E-02 1.692E-02 6.533E-01
 scprqt: <Vxc>= -3.2012436E-01 hartree

 Pulay update with  7 previous iterations:
 mixing of old trial potential: alpha(m:m-4)=  0.250      0.375      0.282      0.986E-01 -0.541E-01
 scfcv_core: previous iteration took 01:02 [minutes]

 ITER STEP NUMBER    27
 vtorho: nnsclo_now = 1, note that nnsclo, dbl_nnsclo, istep= 0 0 27
 Total charge density [el/Bohr^3]
      Maximum=    4.1020E+00  at reduced coord.    0.0000    0.9444    0.9542
      Minimum=    1.6445E-05  at reduced coord.    0.0000    0.4444    0.7917
   Integrated=    2.5200E+02
 ETOT 27  -1850.8268044073    -2.677E-03 3.863E-02 4.388E-01
 scprqt: <Vxc>= -3.1981121E-01 hartree

 Pulay update with  7 previous iterations:
 mixing of old trial potential: alpha(m:m-4)=   1.49     -0.834      0.140      0.154      0.764E-01
 scfcv_core: previous iteration took 56.76 [s]

 ITER STEP NUMBER    28
 vtorho: nnsclo_now = 1, note that nnsclo, dbl_nnsclo, istep= 0 0 28
 Total charge density [el/Bohr^3]
      Maximum=    4.1195E+00  at reduced coord.    0.0000    0.9444    0.9542
      Minimum=    2.6922E-05  at reduced coord.    0.0000    0.4444    0.7792
   Integrated=    2.5200E+02
 ETOT 28  -1850.8895676090    -6.276E-02 8.757E-02 2.193E+00
 scprqt: <Vxc>= -3.1944105E-01 hartree

 Pulay update with  7 previous iterations:
 mixing of old trial potential: alpha(m:m-4)=  0.147       1.15     -0.676      0.147      0.174
 scfcv_core: previous iteration took 58.69 [s]

 ITER STEP NUMBER    29
 vtorho: nnsclo_now = 1, note that nnsclo, dbl_nnsclo, istep= 0 0 29
 Total charge density [el/Bohr^3]
      Maximum=    4.1125E+00  at reduced coord.    0.0000    0.9444    0.9542
      Minimum=    2.0644E-05  at reduced coord.    0.0000    0.4444    0.7792
   Integrated=    2.5200E+02
 ETOT 29  -1850.8438361742     4.573E-02 2.283E-02 8.128E-01
 scprqt: <Vxc>= -3.1946336E-01 hartree

 Pulay update with  7 previous iterations:
 mixing of old trial potential: alpha(m:m-4)=  0.333      0.116E-01  0.919     -0.617      0.129
 scfcv_core: previous iteration took 58.75 [s]

 ITER STEP NUMBER    30
 vtorho: nnsclo_now = 1, note that nnsclo, dbl_nnsclo, istep= 0 0 30
 Total charge density [el/Bohr^3]
      Maximum=    4.1072E+00  at reduced coord.    0.0000    0.9444    0.9542
      Minimum=    2.0611E-05  at reduced coord.    0.0000    0.4444    0.7792
   Integrated=    2.5200E+02
 ETOT 30  -1850.8234080285     2.043E-02 7.825E-03 3.767E-01
 scprqt: <Vxc>= -3.1930616E-01 hartree

 Pulay update with  7 previous iterations:
 mixing of old trial potential: alpha(m:m-4)=  0.603     -0.779E-01  0.405E-01  0.647     -0.571
 scfcv_core: previous iteration took 56.69 [s]

 ITER STEP NUMBER    31
 vtorho: nnsclo_now = 1, note that nnsclo, dbl_nnsclo, istep= 0 0 31
 Total charge density [el/Bohr^3]
      Maximum=    4.1021E+00  at reduced coord.    0.0000    0.9444    0.9542
      Minimum=    1.8238E-05  at reduced coord.    0.0000    0.4444    0.7917
   Integrated=    2.5200E+02
 ETOT 31  -1850.8176340819     5.774E-03 5.379E-03 1.775E-01
 scprqt: <Vxc>= -3.1912344E-01 hartree

 Pulay update with  7 previous iterations:
 mixing of old trial potential: alpha(m:m-4)=  0.945      0.102      0.139      0.431E-01  0.461
 scfcv_core: previous iteration took 59.11 [s]

 ITER STEP NUMBER    32
 vtorho: nnsclo_now = 1, note that nnsclo, dbl_nnsclo, istep= 0 0 32
 Total charge density [el/Bohr^3]
      Maximum=    4.0981E+00  at reduced coord.    0.0000    0.9444    0.9542
      Minimum=    1.7508E-05  at reduced coord.    0.0000    0.4444    0.7792
   Integrated=    2.5200E+02
 ETOT 32  -1850.8151275227     2.507E-03 3.184E-03 8.656E-02
 scprqt: <Vxc>= -3.1824060E-01 hartree

 Pulay update with  7 previous iterations:
 mixing of old trial potential: alpha(m:m-4)=  0.676      0.433     -0.674E-01  0.127      0.650E-01
 scfcv_core: previous iteration took 58.51 [s]

 ITER STEP NUMBER    33
 vtorho: nnsclo_now = 1, note that nnsclo, dbl_nnsclo, istep= 0 0 33
 Total charge density [el/Bohr^3]
      Maximum=    4.1024E+00  at reduced coord.    0.0000    0.9444    0.9542
      Minimum=    1.7231E-05  at reduced coord.    0.0000    0.4444    0.7792
   Integrated=    2.5200E+02
 ETOT 33  -1850.8156066927    -4.792E-04 3.974E-03 6.072E-02
 scprqt: <Vxc>= -3.1747536E-01 hartree

 Pulay update with  7 previous iterations:
 mixing of old trial potential: alpha(m:m-4)=  0.581      0.228      0.207     -0.120      0.108
 scfcv_core: previous iteration took 59.64 [s]

 ITER STEP NUMBER    34
 vtorho: nnsclo_now = 1, note that nnsclo, dbl_nnsclo, istep= 0 0 34
 Total charge density [el/Bohr^3]
      Maximum=    4.1005E+00  at reduced coord.    0.0000    0.9444    0.9542
      Minimum=    1.7430E-05  at reduced coord.    0.0000    0.4444    0.7792
   Integrated=    2.5200E+02
 ETOT 34  -1850.8139515822     1.655E-03 2.191E-03 2.113E-02
 scprqt: <Vxc>= -3.1740721E-01 hartree

 Pulay update with  7 previous iterations:
 mixing of old trial potential: alpha(m:m-4)=  0.830      0.944E-01  0.527E-01 -0.269E-01 -0.185
 scfcv_core: previous iteration took 01:03 [minutes]

 ITER STEP NUMBER    35
 vtorho: nnsclo_now = 1, note that nnsclo, dbl_nnsclo, istep= 0 0 35
 Total charge density [el/Bohr^3]
      Maximum=    4.1009E+00  at reduced coord.    0.0000    0.9444    0.9542
      Minimum=    1.7107E-05  at reduced coord.    0.0000    0.4444    0.7792
   Integrated=    2.5200E+02
 ETOT 35  -1850.8142284405    -2.769E-04 1.675E-03 1.412E-02
 scprqt: <Vxc>= -3.1714136E-01 hartree

 Pulay update with  7 previous iterations:
 mixing of old trial potential: alpha(m:m-4)=   1.11     -0.282E-02 -0.128      0.137E-01  0.166E-01
 scfcv_core: previous iteration took 01:02 [minutes]

 ITER STEP NUMBER    36
 vtorho: nnsclo_now = 1, note that nnsclo, dbl_nnsclo, istep= 0 0 36
 Total charge density [el/Bohr^3]
      Maximum=    4.1009E+00  at reduced coord.    0.0000    0.9444    0.9542
      Minimum=    1.6815E-05  at reduced coord.    0.0000    0.4444    0.7792
   Integrated=    2.5200E+02
 ETOT 36  -1850.8144281112    -1.997E-04 1.066E-02 8.219E-03
 scprqt: <Vxc>= -3.1682776E-01 hartree

 Pulay update with  7 previous iterations:
 mixing of old trial potential: alpha(m:m-4)=   1.15     -0.160     -0.503E-01  0.135E-01  0.519E-02
 scfcv_core: previous iteration took 59.53 [s]

 ITER STEP NUMBER    37
 vtorho: nnsclo_now = 1, note that nnsclo, dbl_nnsclo, istep= 0 0 37
 Total charge density [el/Bohr^3]
      Maximum=    4.1005E+00  at reduced coord.    0.0000    0.9444    0.9542
      Minimum=    1.6723E-05  at reduced coord.    0.0000    0.4444    0.7792
   Integrated=    2.5200E+02
 ETOT 37  -1850.8143655186     6.259E-05 2.319E-03 4.274E-03
 scprqt: <Vxc>= -3.1668190E-01 hartree

 Pulay update with  7 previous iterations:
 mixing of old trial potential: alpha(m:m-4)=  0.745      0.672     -0.335     -0.168      0.700E-01
 scfcv_core: previous iteration took 57.75 [s]

 ITER STEP NUMBER    38
 vtorho: nnsclo_now = 1, note that nnsclo, dbl_nnsclo, istep= 0 0 38
 Total charge density [el/Bohr^3]
      Maximum=    4.1010E+00  at reduced coord.    0.0000    0.9444    0.9542
      Minimum=    1.6640E-05  at reduced coord.    0.0000    0.4444    0.7792
   Integrated=    2.5200E+02
 ETOT 38  -1850.8145045293    -1.390E-04 3.212E-03 2.631E-03
 scprqt: <Vxc>= -3.1652966E-01 hartree

 Pulay update with  7 previous iterations:
 mixing of old trial potential: alpha(m:m-4)=   1.46     -0.186     -0.823E-01 -0.116     -0.674E-01
 scfcv_core: previous iteration took 01:00 [minutes]

 ITER STEP NUMBER    39
 vtorho: nnsclo_now = 1, note that nnsclo, dbl_nnsclo, istep= 0 0 39
 Total charge density [el/Bohr^3]
      Maximum=    4.1018E+00  at reduced coord.    0.0000    0.9444    0.9542
      Minimum=    1.6704E-05  at reduced coord.    0.0000    0.4444    0.7792
   Integrated=    2.5200E+02
 ETOT 39  -1850.8142121437     2.924E-04 6.806E-04 3.171E-03
 scprqt: <Vxc>= -3.1637848E-01 hartree

 Pulay update with  7 previous iterations:
 mixing of old trial potential: alpha(m:m-4)=  0.777     -0.192      0.287      0.777E-01  0.366E-01
 scfcv_core: previous iteration took 01:01 [minutes]

 ITER STEP NUMBER    40
 vtorho: nnsclo_now = 1, note that nnsclo, dbl_nnsclo, istep= 0 0 40
 Total charge density [el/Bohr^3]
      Maximum=    4.1016E+00  at reduced coord.    0.0000    0.9444    0.9542
      Minimum=    1.6747E-05  at reduced coord.    0.0000    0.4444    0.7792
   Integrated=    2.5200E+02
 ETOT 40  -1850.8135823390     6.298E-04 1.272E-03 9.096E-04
 scprqt: <Vxc>= -3.1648739E-01 hartree

 Pulay update with  7 previous iterations:
 mixing of old trial potential: alpha(m:m-4)=   1.06     -0.261E-01 -0.103      0.497E-01 -0.496E-01
 scfcv_core: previous iteration took 57.32 [s]

 ITER STEP NUMBER    41
 vtorho: nnsclo_now = 1, note that nnsclo, dbl_nnsclo, istep= 0 0 41
 Total charge density [el/Bohr^3]
      Maximum=    4.1017E+00  at reduced coord.    0.0000    0.9444    0.9542
      Minimum=    1.6816E-05  at reduced coord.    0.0000    0.4444    0.7792
   Integrated=    2.5200E+02
 ETOT 41  -1850.8132603736     3.220E-04 1.150E-03 3.971E-04
 scprqt: <Vxc>= -3.1649495E-01 hartree

 Pulay update with  7 previous iterations:
 mixing of old trial potential: alpha(m:m-4)=  0.869      0.225     -0.926E-01 -0.130E-01  0.242E-02
 scfcv_core: previous iteration took 58.97 [s]

 ITER STEP NUMBER    42
 vtorho: nnsclo_now = 1, note that nnsclo, dbl_nnsclo, istep= 0 0 42
 Total charge density [el/Bohr^3]
      Maximum=    4.1018E+00  at reduced coord.    0.0000    0.9444    0.9542
      Minimum=    1.6881E-05  at reduced coord.    0.0000    0.4444    0.7792
   Integrated=    2.5200E+02
 ETOT 42  -1850.8131274391     1.329E-04 4.950E-04 2.227E-04
 scprqt: <Vxc>= -3.1648079E-01 hartree

 Pulay update with  7 previous iterations:
 mixing of old trial potential: alpha(m:m-4)=  0.944      0.235     -0.173     -0.488E-01 -0.258E-01
 scfcv_core: previous iteration took 57.52 [s]

 ITER STEP NUMBER    43
 vtorho: nnsclo_now = 1, note that nnsclo, dbl_nnsclo, istep= 0 0 43
 Total charge density [el/Bohr^3]
      Maximum=    4.1018E+00  at reduced coord.    0.0000    0.9444    0.9542
      Minimum=    1.6937E-05  at reduced coord.    0.0000    0.4444    0.7792
   Integrated=    2.5200E+02
 ETOT 43  -1850.8130492396     7.820E-05 8.818E-04 1.352E-04
 scprqt: <Vxc>= -3.1645874E-01 hartree

 Pulay update with  7 previous iterations:
 mixing of old trial potential: alpha(m:m-4)=   1.18      0.148     -0.122     -0.182     -0.518E-01
 scfcv_core: previous iteration took 57.94 [s]

 ITER STEP NUMBER    44
 vtorho: nnsclo_now = 1, note that nnsclo, dbl_nnsclo, istep= 0 0 44
 Total charge density [el/Bohr^3]
      Maximum=    4.1019E+00  at reduced coord.    0.0000    0.9444    0.9542
      Minimum=    1.7008E-05  at reduced coord.    0.0000    0.4444    0.7792
   Integrated=    2.5200E+02
 ETOT 44  -1850.8129784616     7.078E-05 1.065E-03 3.521E-05
 scprqt: <Vxc>= -3.1642951E-01 hartree

 Pulay update with  7 previous iterations:
 mixing of old trial potential: alpha(m:m-4)=   1.26      0.195     -0.338     -0.132     -0.572E-02
 scfcv_core: previous iteration took 01:00 [minutes]

 ITER STEP NUMBER    45
 vtorho: nnsclo_now = 1, note that nnsclo, dbl_nnsclo, istep= 0 0 45
 Total charge density [el/Bohr^3]
      Maximum=    4.1019E+00  at reduced coord.    0.0000    0.9444    0.9542
      Minimum=    1.7073E-05  at reduced coord.    0.0000    0.4444    0.7792
   Integrated=    2.5200E+02
 ETOT 45  -1850.8129575769     2.088E-05 6.177E-04 5.629E-06
 scprqt: <Vxc>= -3.1639818E-01 hartree

 Pulay update with  7 previous iterations:
 mixing of old trial potential: alpha(m:m-4)=   1.01      0.268     -0.171     -0.200      0.323E-01
 scfcv_core: previous iteration took 59.81 [s]

 ITER STEP NUMBER    46
 vtorho: nnsclo_now = 1, note that nnsclo, dbl_nnsclo, istep= 0 0 46
 Total charge density [el/Bohr^3]
      Maximum=    4.1019E+00  at reduced coord.    0.0000    0.9444    0.9542
      Minimum=    1.7090E-05  at reduced coord.    0.0000    0.4444    0.7792
   Integrated=    2.5200E+02
 ETOT 46  -1850.8129562553     1.322E-06 4.743E-04 1.428E-06
 scprqt: <Vxc>= -3.1638273E-01 hartree

 Pulay update with  7 previous iterations:
 mixing of old trial potential: alpha(m:m-4)=   1.07      0.130     -0.189     -0.659E-01 -0.293E-02
 scfcv_core: previous iteration took 01:04 [minutes]

 ITER STEP NUMBER    47
 vtorho: nnsclo_now = 1, note that nnsclo, dbl_nnsclo, istep= 0 0 47
 Total charge density [el/Bohr^3]
      Maximum=    4.1019E+00  at reduced coord.    0.0000    0.9444    0.9542
      Minimum=    1.7095E-05  at reduced coord.    0.0000    0.4444    0.7792
   Integrated=    2.5200E+02
 ETOT 47  -1850.8129560352     2.201E-07 3.133E-04 3.510E-07
 scprqt: <Vxc>= -3.1637460E-01 hartree

 Pulay update with  7 previous iterations:
 mixing of old trial potential: alpha(m:m-4)=   1.14      0.602E-01 -0.179     -0.312E-01 -0.922E-02
 scfcv_core: previous iteration took 01:00 [minutes]

 ITER STEP NUMBER    48
 vtorho: nnsclo_now = 1, note that nnsclo, dbl_nnsclo, istep= 0 0 48
 Total charge density [el/Bohr^3]
      Maximum=    4.1019E+00  at reduced coord.    0.0000    0.9444    0.9542
      Minimum=    1.7100E-05  at reduced coord.    0.0000    0.4444    0.7792
   Integrated=    2.5200E+02
 ETOT 48  -1850.8129559902     4.498E-08 1.112E-03 5.735E-08
 scprqt: <Vxc>= -3.1636946E-01 hartree

 Pulay update with  7 previous iterations:
 mixing of old trial potential: alpha(m:m-4)=   1.04      0.144     -0.161     -0.503E-01  0.211E-01
 scfcv_core: previous iteration took 57.80 [s]

 ITER STEP NUMBER    49
 vtorho: nnsclo_now = 1, note that nnsclo, dbl_nnsclo, istep= 0 0 49
 Total charge density [el/Bohr^3]
      Maximum=    4.1019E+00  at reduced coord.    0.0000    0.9444    0.9542
      Minimum=    1.7101E-05  at reduced coord.    0.0000    0.4444    0.7792
   Integrated=    2.5200E+02
 ETOT 49  -1850.8129559978    -7.594E-09 4.916E-04 1.636E-08
 scprqt: <Vxc>= -3.1636773E-01 hartree

 Pulay update with  7 previous iterations:
 mixing of old trial potential: alpha(m:m-4)=  0.849      0.371     -0.180     -0.613E-01  0.740E-02
 scfcv_core: previous iteration took 58.31 [s]

 ITER STEP NUMBER    50
 vtorho: nnsclo_now = 1, note that nnsclo, dbl_nnsclo, istep= 0 0 50
 Total charge density [el/Bohr^3]
      Maximum=    4.1019E+00  at reduced coord.    0.0000    0.9444    0.9542
      Minimum=    1.7102E-05  at reduced coord.    0.0000    0.4444    0.7792
   Integrated=    2.5200E+02
 ETOT 50  -1850.8129559969     9.309E-10 1.390E-03 4.040E-09
 scprqt: <Vxc>= -3.1636663E-01 hartree

 Pulay update with  7 previous iterations:
 mixing of old trial potential: alpha(m:m-4)=  0.917      0.180     -0.105E-01 -0.855E-01 -0.955E-02
 scfcv_core: previous iteration took 01:00 [minutes]

 ITER STEP NUMBER    51
 vtorho: nnsclo_now = 1, note that nnsclo, dbl_nnsclo, istep= 0 0 51
 Total charge density [el/Bohr^3]
      Maximum=    4.1019E+00  at reduced coord.    0.0000    0.9444    0.9542
      Minimum=    1.7103E-05  at reduced coord.    0.0000    0.4444    0.7792
   Integrated=    2.5200E+02
 ETOT 51  -1850.8129559968     6.526E-11 4.210E-04 1.309E-09
 scprqt: <Vxc>= -3.1636585E-01 hartree

 Pulay update with  7 previous iterations:
 mixing of old trial potential: alpha(m:m-4)=  0.996      0.163     -0.106     -0.763E-01  0.577E-03
 scfcv_core: previous iteration took 58.06 [s]

 ITER STEP NUMBER    52
 vtorho: nnsclo_now = 1, note that nnsclo, dbl_nnsclo, istep= 0 0 52
 Total charge density [el/Bohr^3]
      Maximum=    4.1019E+00  at reduced coord.    0.0000    0.9444    0.9542
      Minimum=    1.7103E-05  at reduced coord.    0.0000    0.4444    0.7792
   Integrated=    2.5200E+02
 ETOT 52  -1850.8129559969    -1.037E-10 8.858E-04 5.625E-10
 scprqt: <Vxc>= -3.1636551E-01 hartree

 Pulay update with  7 previous iterations:
 mixing of old trial potential: alpha(m:m-4)=   1.09      0.102     -0.157     -0.460E-01 -0.802E-02
 scfcv_core: previous iteration took 57.61 [s]

 ITER STEP NUMBER    53
 vtorho: nnsclo_now = 1, note that nnsclo, dbl_nnsclo, istep= 0 0 53
 Total charge density [el/Bohr^3]
      Maximum=    4.1019E+00  at reduced coord.    0.0000    0.9444    0.9542
      Minimum=    1.7104E-05  at reduced coord.    0.0000    0.4444    0.7792
   Integrated=    2.5200E+02
 ETOT 53  -1850.8129559969     5.753E-11 3.459E-04 2.465E-10
 scprqt: <Vxc>= -3.1636517E-01 hartree

 Pulay update with  7 previous iterations:
 mixing of old trial potential: alpha(m:m-4)=  0.901      0.334     -0.130     -0.991E-01 -0.104E-01
 scfcv_core: previous iteration took 57.18 [s]

 ITER STEP NUMBER    54
 vtorho: nnsclo_now = 1, note that nnsclo, dbl_nnsclo, istep= 0 0 54
 Total charge density [el/Bohr^3]
      Maximum=    4.1019E+00  at reduced coord.    0.0000    0.9444    0.9542
      Minimum=    1.7104E-05  at reduced coord.    0.0000    0.4444    0.7792
   Integrated=    2.5200E+02
 ETOT 54  -1850.8129559968     1.978E-11 3.925E-04 9.544E-11
 scprqt: <Vxc>= -3.1636495E-01 hartree

 Pulay update with  7 previous iterations:
 mixing of old trial potential: alpha(m:m-4)=   1.19      0.139     -0.249     -0.117      0.189E-01
 scfcv_core: previous iteration took 01:00 [minutes]

 ITER STEP NUMBER    55
 vtorho: nnsclo_now = 1, note that nnsclo, dbl_nnsclo, istep= 0 0 55
 Total charge density [el/Bohr^3]
      Maximum=    4.1019E+00  at reduced coord.    0.0000    0.9444    0.9542
      Minimum=    1.7104E-05  at reduced coord.    0.0000    0.4444    0.7792
   Integrated=    2.5200E+02
 ETOT 55  -1850.8129559968     7.367E-11 2.322E-04 2.966E-11
 scprqt: <Vxc>= -3.1636477E-01 hartree

 Pulay update with  7 previous iterations:
 mixing of old trial potential: alpha(m:m-4)=  0.953      0.393     -0.183     -0.217      0.623E-02
 scfcv_core: previous iteration took 57.25 [s]

 ITER STEP NUMBER    56
 vtorho: nnsclo_now = 1, note that nnsclo, dbl_nnsclo, istep= 0 0 56
 Total charge density [el/Bohr^3]
      Maximum=    4.1019E+00  at reduced coord.    0.0000    0.9444    0.9542
      Minimum=    1.7104E-05  at reduced coord.    0.0000    0.4444    0.7792
   Integrated=    2.5200E+02
 ETOT 56  -1850.8129559968    -9.095E-12 1.487E-04 8.219E-12
 scprqt: <Vxc>= -3.1636468E-01 hartree

 Pulay update with  7 previous iterations:
 mixing of old trial potential: alpha(m:m-4)=  0.985      0.216     -0.139     -0.822E-01 -0.172E-01
 scfcv_core: previous iteration took 01:02 [minutes]

 ITER STEP NUMBER    57
 vtorho: nnsclo_now = 1, note that nnsclo, dbl_nnsclo, istep= 0 0 57
 Total charge density [el/Bohr^3]
      Maximum=    4.1019E+00  at reduced coord.    0.0000    0.9444    0.9542
      Minimum=    1.7104E-05  at reduced coord.    0.0000    0.4444    0.7792
   Integrated=    2.5200E+02
 ETOT 57  -1850.8129559968    -5.571E-11 1.377E-04 3.151E-12
 scprqt: <Vxc>= -3.1636466E-01 hartree

 Pulay update with  7 previous iterations:
 mixing of old trial potential: alpha(m:m-4)=   1.02      0.202     -0.139     -0.136     -0.147E-01
 scfcv_core: previous iteration took 01:01 [minutes]

 ITER STEP NUMBER    58
 vtorho: nnsclo_now = 1, note that nnsclo, dbl_nnsclo, istep= 0 0 58
 Total charge density [el/Bohr^3]
      Maximum=    4.1019E+00  at reduced coord.    0.0000    0.9444    0.9542
      Minimum=    1.7104E-05  at reduced coord.    0.0000    0.4444    0.7792
   Integrated=    2.5200E+02
 ETOT 58  -1850.8129559968     3.547E-11 5.330E-05 1.316E-12
 scprqt: <Vxc>= -3.1636465E-01 hartree

 Pulay update with  7 previous iterations:
 mixing of old trial potential: alpha(m:m-4)=   1.16      0.867E-01 -0.192     -0.831E-01  0.188E-02
 scfcv_core: previous iteration took 58.99 [s]

 ITER STEP NUMBER    59
 vtorho: nnsclo_now = 1, note that nnsclo, dbl_nnsclo, istep= 0 0 59
 Total charge density [el/Bohr^3]
      Maximum=    4.1019E+00  at reduced coord.    0.0000    0.9444    0.9542
      Minimum=    1.7104E-05  at reduced coord.    0.0000    0.4444    0.7792
   Integrated=    2.5200E+02
 ETOT 59  -1850.8129559969    -6.685E-11 7.618E-05 3.933E-13
 scprqt: <Vxc>= -3.1636465E-01 hartree

 Pulay update with  7 previous iterations:
 mixing of old trial potential: alpha(m:m-4)=  0.929      0.419     -0.243     -0.116     -0.124E-01
 scfcv_core: previous iteration took 01:01 [minutes]

 ITER STEP NUMBER    60
 vtorho: nnsclo_now = 1, note that nnsclo, dbl_nnsclo, istep= 0 0 60
 Total charge density [el/Bohr^3]
      Maximum=    4.1019E+00  at reduced coord.    0.0000    0.9444    0.9542
      Minimum=    1.7104E-05  at reduced coord.    0.0000    0.4444    0.7792
   Integrated=    2.5200E+02
 ETOT 60  -1850.8129559968     8.663E-11 1.980E-05 1.111E-13
 scprqt: <Vxc>= -3.1636465E-01 hartree

 Pulay update with  7 previous iterations:
 mixing of old trial potential: alpha(m:m-4)=  0.938      0.271     -0.970E-01 -0.120     -0.171E-01
 scfcv_core: previous iteration took 58.79 [s]

 ITER STEP NUMBER    61
 vtorho: nnsclo_now = 1, note that nnsclo, dbl_nnsclo, istep= 0 0 61
 Total charge density [el/Bohr^3]
      Maximum=    4.1019E+00  at reduced coord.    0.0000    0.9444    0.9542
      Minimum=    1.7104E-05  at reduced coord.    0.0000    0.4444    0.7792
   Integrated=    2.5200E+02
 ETOT 61  -1850.8129559967     5.502E-11 4.063E-05 2.892E-14
 scprqt: <Vxc>= -3.1636465E-01 hartree

 Pulay update with  7 previous iterations:
 mixing of old trial potential: alpha(m:m-4)=   1.12      0.161     -0.148     -0.172     -0.269E-02
 scfcv_core: previous iteration took 57.54 [s]

 ITER STEP NUMBER    62
 vtorho: nnsclo_now = 1, note that nnsclo, dbl_nnsclo, istep= 0 0 62
 Total charge density [el/Bohr^3]
[...]
           getden3          1
           getwfk1          0
           getwfk2          0
           getwfk3          1
           iatsph3       1    7   14   15
             iscf1         17
             iscf2         -2
             iscf3         -3
           istwfk2       7    0    0    0    0    0    0    0    0    0
                         4    0    0    0    0    0    0    0    0    0
                         0    0    2    0    0    0    0    0    0    0
                         0    0    0    0    0    0    0    0    0    0
                         9    0    0    0    0    0    0    0    8    0
              ixc     -101130
           jdtset        1    2    3
              kpt1     6.25000000E-02  6.25000000E-02  5.00000000E-01
                       1.87500000E-01  6.25000000E-02  5.00000000E-01
                       3.12500000E-01  6.25000000E-02  5.00000000E-01
                       4.37500000E-01  6.25000000E-02  5.00000000E-01
                       1.87500000E-01  1.87500000E-01  5.00000000E-01
                       3.12500000E-01  1.87500000E-01  5.00000000E-01
                       4.37500000E-01  1.87500000E-01  5.00000000E-01
                       3.12500000E-01  3.12500000E-01  5.00000000E-01
                       4.37500000E-01  3.12500000E-01  5.00000000E-01
                       4.37500000E-01  4.37500000E-01  5.00000000E-01
              kpt2     5.00000000E-01  5.00000000E-01  0.00000000E+00
                       4.50000000E-01  4.50000000E-01  5.00000000E-02
                       4.00000000E-01  4.00000000E-01  1.00000000E-01
                       3.50000000E-01  3.50000000E-01  1.50000000E-01
                       3.00000000E-01  3.00000000E-01  2.00000000E-01
                       2.50000000E-01  2.50000000E-01  2.50000000E-01
                       2.00000000E-01  2.00000000E-01  3.00000000E-01
                       1.50000000E-01  1.50000000E-01  3.50000000E-01
                       1.00000000E-01  1.00000000E-01  4.00000000E-01
                       5.00000000E-02  5.00000000E-02  4.50000000E-01
                       0.00000000E+00  0.00000000E+00  5.00000000E-01
                       0.00000000E+00  0.00000000E+00  4.58333333E-01
                       0.00000000E+00  0.00000000E+00  4.16666667E-01
                       0.00000000E+00  0.00000000E+00  3.75000000E-01
                       0.00000000E+00  0.00000000E+00  3.33333333E-01
                       0.00000000E+00  0.00000000E+00  2.91666667E-01
                       0.00000000E+00  0.00000000E+00  2.50000000E-01
                       0.00000000E+00  0.00000000E+00  2.08333333E-01
                       0.00000000E+00  0.00000000E+00  1.66666667E-01
                       0.00000000E+00  0.00000000E+00  1.25000000E-01
                       0.00000000E+00  0.00000000E+00  8.33333333E-02
                       0.00000000E+00  0.00000000E+00  4.16666667E-02
                       0.00000000E+00  0.00000000E+00  0.00000000E+00
                       2.77777778E-02  2.77777778E-02  2.77777778E-02
                       5.55555556E-02  5.55555556E-02  5.55555556E-02
                       8.33333333E-02  8.33333333E-02  8.33333333E-02
                       1.11111111E-01  1.11111111E-01  1.11111111E-01
                       1.38888889E-01  1.38888889E-01  1.38888889E-01
                       1.66666667E-01  1.66666667E-01  1.66666667E-01
                       1.94444444E-01  1.94444444E-01  1.94444444E-01
                       2.22222222E-01  2.22222222E-01  2.22222222E-01
                       2.50000000E-01  2.50000000E-01  2.50000000E-01
                       2.77777778E-01  2.77777778E-01  2.77777778E-01
                       3.05555556E-01  3.05555556E-01  3.05555556E-01
                       3.33333333E-01  3.33333333E-01  3.33333333E-01
                       3.61111111E-01  3.61111111E-01  3.61111111E-01
                       3.88888889E-01  3.88888889E-01  3.88888889E-01
                       4.16666667E-01  4.16666667E-01  4.16666667E-01
                       4.44444444E-01  4.44444444E-01  4.44444444E-01
                       4.72222222E-01  4.72222222E-01  4.72222222E-01
                       5.00000000E-01  5.00000000E-01  5.00000000E-01
                       4.37500000E-01  5.00000000E-01  5.00000000E-01
                       3.75000000E-01  5.00000000E-01  5.00000000E-01
                       3.12500000E-01  5.00000000E-01  5.00000000E-01
                       2.50000000E-01  5.00000000E-01  5.00000000E-01
                       1.87500000E-01  5.00000000E-01  5.00000000E-01
                       1.25000000E-01  5.00000000E-01  5.00000000E-01
                       6.25000000E-02  5.00000000E-01  5.00000000E-01
                       0.00000000E+00  5.00000000E-01  5.00000000E-01
                       0.00000000E+00  5.00000000E-01  4.37500000E-01
              kpt3     6.25000000E-02  6.25000000E-02  5.00000000E-01
                       1.87500000E-01  6.25000000E-02  5.00000000E-01
                       3.12500000E-01  6.25000000E-02  5.00000000E-01
                       4.37500000E-01  6.25000000E-02  5.00000000E-01
                       1.87500000E-01  1.87500000E-01  5.00000000E-01
                       3.12500000E-01  1.87500000E-01  5.00000000E-01
                       4.37500000E-01  1.87500000E-01  5.00000000E-01
                       3.12500000E-01  3.12500000E-01  5.00000000E-01
                       4.37500000E-01  3.12500000E-01  5.00000000E-01
                       4.37500000E-01  4.37500000E-01  5.00000000E-01
                       outvar_i_n : Printing only first  50 k-points.
           kptopt1          1
           kptopt2         -5
           kptopt3          1
         kptrlatt        8    0    0      0    8    0      0    0    1
          kptrlen1     6.20994534E+01
          kptrlen2     3.00000000E+01
          kptrlen3     6.20994534E+01
P           mkmem1          3
P           mkmem2         15
P           mkmem3          3
            natom          16
           natsph3       4
            nband1        135
            nband2        135
            nband3        135
           nbdbuf1          0
           nbdbuf2          2
           nbdbuf3          2
           ndtset           3
            ngfft          36      36     240
             nkpt1         10
             nkpt2         57
             nkpt3         10
            nstep1       1000
            nstep2        300
            nstep3        300
             nsym           8
           ntypat           3
              occ      2.000000  2.000000  2.000000  2.000000  2.000000  2.000000
                       2.000000  2.000000  2.000000  2.000000  2.000000  2.000000
                       2.000000  2.000000  2.000000  2.000000  2.000000  2.000000
                       2.000000  2.000000  2.000000  2.000000  2.000000  2.000000
                       2.000000  2.000000  2.000000  2.000000  2.000000  2.000000
                       2.000000  2.000000  2.000000  2.000000  2.000000  2.000000
                       2.000000  2.000000  2.000000  2.000000  2.000000  2.000000
                       2.000000  2.000000  2.000000  2.000000  2.000000  2.000000
                       2.000000  2.000000  2.000000  2.000000  2.000000  2.000000
                       2.000000  2.000000  2.000000  2.000000  2.000000  2.000000
                       2.000000  2.000000  2.000000  2.000000  2.000000  2.000000
                       2.000000  2.000000  2.000000  2.000000  2.000000  2.000000
                       2.000000  2.000000  2.000000  2.000000  2.000000  2.000000
                       2.000000  2.000000  2.000000  2.000000  2.000000  2.000000
                       2.000000  2.000000  2.000000  2.000000  2.000000  2.000000
                       2.000000  2.000000  2.000000  2.000000  2.000000  2.000000
                       2.000000  2.000000  2.000000  2.000000  2.000000  2.000000
                       2.000000  2.000000  2.000000  2.000000  2.000000  2.000000
                       2.000000  2.000000  2.000000  2.000000  2.000000  2.000000
                       2.000000  2.000000  2.000000  2.000000  2.000000  2.000000
                       2.000000  2.000000  2.000000  2.000000  2.000000  2.000000
                       0.000000  0.000000  0.000000  0.000000  0.000000  0.000000
                       0.000000  0.000000  0.000000
           prtcif           1
           prtdos1          0
           prtdos2          0
           prtdos3          3
           shiftk      5.00000000E-01  5.00000000E-01  5.00000000E-01
          spgroup          99
           strten1     1.5701695739E-02  1.5701695739E-02  1.5522142131E-02
                       0.0000000000E+00  0.0000000000E+00  0.0000000000E+00
           symrel      1  0  0   0  1  0   0  0  1       1  0  0   0 -1  0   0  0  1
                      -1  0  0   0 -1  0   0  0  1      -1  0  0   0  1  0   0  0  1
                       0  1  0   1  0  0   0  0  1       0  1  0  -1  0  0   0  0  1
                       0 -1  0  -1  0  0   0  0  1       0 -1  0   1  0  0   0  0  1
            tnons      0.0000000  0.0000000  0.0000000     0.0000000 -0.0000000  0.0000000
                      -0.0000000 -0.0000000  0.0000000    -0.0000000  0.0000000  0.0000000
                       0.5000000  0.5000000  0.0000000     0.5000000  0.5000000  0.0000000
                       0.5000000  0.5000000  0.0000000     0.5000000  0.5000000  0.0000000
           tolwfr      1.00000000E-20
            typat      1  1  1  1  1  1  2  2  2  2  2  2  2  2  3  3
           vdw_xc           5
              wtk1       0.06250    0.12500    0.12500    0.12500    0.06250    0.12500
                         0.12500    0.06250    0.12500    0.06250
              wtk2       1.00000    1.00000    1.00000    1.00000    1.00000    1.00000
                         1.00000    1.00000    1.00000    1.00000    1.00000    1.00000
                         1.00000    1.00000    1.00000    1.00000    1.00000    1.00000
                         1.00000    1.00000    1.00000    1.00000    1.00000    1.00000
                         1.00000    1.00000    1.00000    1.00000    1.00000    1.00000
                         1.00000    1.00000    1.00000    1.00000    1.00000    1.00000
                         1.00000    1.00000    1.00000    1.00000    1.00000    1.00000
                         1.00000    1.00000    1.00000    1.00000    1.00000    1.00000
                         1.00000    1.00000
              wtk3       0.06250    0.12500    0.12500    0.12500    0.06250    0.12500
                         0.12500    0.06250    0.12500    0.06250
                       outvars : Printing only first  50 k-points.
           xangst      2.0538509642E+00 -1.0000005802E-10  4.6664681475E+00
                      -1.0000005802E-10  2.0538509642E+00  7.4160979620E+00
                       2.0538509642E+00 -1.0000005802E-10  1.0102196638E+01
                      -1.0000005802E-10  2.0538509642E+00  1.2851826453E+01
                       2.0538509642E+00 -1.0000005802E-10  1.5537925129E+01
                      -1.0000005802E-10  2.0538509642E+00  1.8287554943E+01
                      -1.0000005802E-10  2.0538509642E+00  4.6982333557E+00
                       2.0538509642E+00 -1.0000005802E-10  7.3919861282E+00
                      -1.0000005802E-10  2.0538509642E+00  1.0144465526E+01
                       2.0538509642E+00 -1.0000005802E-10  1.2833348659E+01
                      -1.0000005802E-10  2.0538509642E+00  1.5585828057E+01
                       2.0538509642E+00 -1.0000005802E-10  1.8274711190E+01
                       2.0538509642E+00 -1.0000005802E-10  2.5980923743E+01
                      -1.0000005802E-10  2.0538509642E+00  2.8974034570E+01
                       2.0538509642E+00  2.0538509642E+00  2.7477479156E+01
                      -1.0000005802E-10 -1.0000005802E-10  2.7477479156E+01
            xcart      3.8812158400E+00 -1.8897272293E-10  8.8183468067E+00
                      -1.8897272293E-10  3.8812158400E+00  1.4014394123E+01
                       3.8812158400E+00 -1.8897272293E-10  1.9090384987E+01
                      -1.8897272293E-10  3.8812158400E+00  2.4286432303E+01
                       3.8812158400E+00 -1.8897272293E-10  2.9362423167E+01
                      -1.8897272293E-10  3.8812158400E+00  3.4558470483E+01
                      -1.8897272293E-10  3.8812158400E+00  8.8783743507E+00
                       3.8812158400E+00 -1.8897272293E-10  1.3968829360E+01
                      -1.8897272293E-10  3.8812158400E+00  1.9170261609E+01
                       3.8812158400E+00 -1.8897272293E-10  2.4251514334E+01
                      -1.8897272293E-10  3.8812158400E+00  2.9452946582E+01
                       3.8812158400E+00 -1.8897272293E-10  3.4534199307E+01
                       3.8812158400E+00 -1.8897272293E-10  4.9096830554E+01
                      -1.8897272293E-10  3.8812158400E+00  5.4752990302E+01
                       3.8812158400E+00  3.8812158400E+00  5.1924910427E+01
                      -1.8897272293E-10 -1.8897272293E-10  5.1924910427E+01
             xred      4.9999999998E-01 -2.4344526395E-11  1.6105689859E-01
                      -2.4344526395E-11  4.9999999998E-01  2.5595668922E-01
                       4.9999999998E-01 -2.4344526395E-11  3.4866378770E-01
                      -2.4344526395E-11  4.9999999998E-01  4.4356357833E-01
                       4.9999999998E-01 -2.4344526395E-11  5.3627067681E-01
                      -2.4344526395E-11  4.9999999998E-01  6.3117046744E-01
                      -2.4344526395E-11  4.9999999998E-01  1.6215323221E-01
                       4.9999999998E-01 -2.4344526395E-11  2.5512450157E-01
                      -2.4344526395E-11  4.9999999998E-01  3.5012264175E-01
                       4.9999999998E-01 -2.4344526395E-11  4.4292584204E-01
                      -2.4344526395E-11  4.9999999998E-01  5.3792398222E-01
                       4.9999999998E-01 -2.4344526395E-11  6.3072718251E-01
                       4.9999999998E-01 -2.4344526395E-11  8.9669678830E-01
                      -2.4344526395E-11  4.9999999998E-01  1.0000000000E+00
                       4.9999999998E-01  4.9999999998E-01  9.4834839414E-01
                      -2.4344526395E-11 -2.4344526395E-11  9.4834839414E-01
            znucl       50.00000   34.00000   30.00000

================================================================================
  

================================================================================

 Suggested references for the acknowledgment of ABINIT usage.

 The users of ABINIT have little formal obligations with respect to the ABINIT group
 (those specified in the GNU General Public License, http://www.gnu.org/copyleft/gpl.txt).
 However, it is common practice in the scientific literature,
 to acknowledge the efforts of people that have made the research possible.
 In this spirit, please find below suggested citations of work written by ABINIT developers,
 corresponding to implementations inside of ABINIT that you have used in the present run.
 Note also that it will be of great value to readers of publications presenting these results,
 to read papers enabling them to understand the theoretical formalism and details
 of the ABINIT implementation.
 For information on why they are suggested, see also https://docs.abinit.org/theory/acknowledgments.
-
- [1] Libxc: A library of exchange and correlation functionals for density functional theory.
- M.A.L. Marques, M.J.T. Oliveira, T. Burnus, Computer Physics Communications 183, 2227 (2012).
- Comment: to be cited when LibXC is used (negative value of ixc)
- Strong suggestion to cite this paper.
- DOI and bibtex: see https://docs.abinit.org/theory/bibliography/#marques2012
-
- [2] The Abinit project: Impact, environment and recent developments.
- Computer Phys. Comm. 248, 107042 (2020).
- X.Gonze, B. Amadon, G. Antonius, F.Arnardi, L.Baguet, J.-M.Beuken,
- J.Bieder, F.Bottin, J.Bouchet, E.Bousquet, N.Brouwer, F.Bruneval,
- G.Brunin, T.Cavignac, J.-B. Charraud, Wei Chen, M.Cote, S.Cottenier,
- J.Denier, G.Geneste, Ph.Ghosez, M.Giantomassi, Y.Gillet, O.Gingras,
- D.R.Hamann, G.Hautier, Xu He, N.Helbig, N.Holzwarth, Y.Jia, F.Jollet,
- W.Lafargue-Dit-Hauret, K.Lejaeghere, M.A.L.Marques, A.Martin, C.Martins,
- H.P.C. Miranda, F.Naccarato, K. Persson, G.Petretto, V.Planes, Y.Pouillon,
- S.Prokhorenko, F.Ricci, G.-M.Rignanese, A.H.Romero, M.M.Schmitt, M.Torrent,
- M.J.van Setten, B.Van Troeye, M.J.Verstraete, G.Zerah and J.W.Zwanzig
- Comment: the fifth generic paper describing the ABINIT project.
- Note that a version of this paper, that is not formatted for Computer Phys. Comm. 
- is available at https://www.abinit.org/sites/default/files/ABINIT20.pdf .
- The licence allows the authors to put it on the Web.
- DOI and bibtex: see https://docs.abinit.org/theory/bibliography/#gonze2020
-
- [3] Optimized norm-conserving Vanderbilt pseudopotentials.
- D.R. Hamann, Phys. Rev. B 88, 085117 (2013).
- Comment: Some pseudopotential generated using the ONCVPSP code were used.
- DOI and bibtex: see https://docs.abinit.org/theory/bibliography/#hamann2013
-
- [4] ABINIT: Overview, and focus on selected capabilities
- J. Chem. Phys. 152, 124102 (2020).
- A. Romero, D.C. Allan, B. Amadon, G. Antonius, T. Applencourt, L.Baguet,
- J.Bieder, F.Bottin, J.Bouchet, E.Bousquet, F.Bruneval,
- G.Brunin, D.Caliste, M.Cote,
- J.Denier, C. Dreyer, Ph.Ghosez, M.Giantomassi, Y.Gillet, O.Gingras,
- D.R.Hamann, G.Hautier, F.Jollet, G. Jomard,
- A.Martin, 
- H.P.C. Miranda, F.Naccarato, G.Petretto, N.A. Pike, V.Planes,
- S.Prokhorenko, T. Rangel, F.Ricci, G.-M.Rignanese, M.Royo, M.Stengel, M.Torrent,
- M.J.van Setten, B.Van Troeye, M.J.Verstraete, J.Wiktor, J.W.Zwanziger, and X.Gonze.
- Comment: a global overview of ABINIT, with focus on selected capabilities .
- Note that a version of this paper, that is not formatted for J. Chem. Phys 
- is available at https://www.abinit.org/sites/default/files/ABINIT20_JPC.pdf .
- The licence allows the authors to put it on the Web.
- DOI and bibtex: see https://docs.abinit.org/theory/bibliography/#romero2020
-
- [5] Recent developments in the ABINIT software package.
- Computer Phys. Comm. 205, 106 (2016).
- X.Gonze, F.Jollet, F.Abreu Araujo, D.Adams, B.Amadon, T.Applencourt,
- C.Audouze, J.-M.Beuken, J.Bieder, A.Bokhanchuk, E.Bousquet, F.Bruneval
- D.Caliste, M.Cote, F.Dahm, F.Da Pieve, M.Delaveau, M.Di Gennaro,
- B.Dorado, C.Espejo, G.Geneste, L.Genovese, A.Gerossier, M.Giantomassi,
- Y.Gillet, D.R.Hamann, L.He, G.Jomard, J.Laflamme Janssen, S.Le Roux,
- A.Levitt, A.Lherbier, F.Liu, I.Lukacevic, A.Martin, C.Martins,
- M.J.T.Oliveira, S.Ponce, Y.Pouillon, T.Rangel, G.-M.Rignanese,
- A.H.Romero, B.Rousseau, O.Rubel, A.A.Shukri, M.Stankovski, M.Torrent,
- M.J.Van Setten, B.Van Troeye, M.J.Verstraete, D.Waroquier, J.Wiktor,
- B.Xu, A.Zhou, J.W.Zwanziger.
- Comment: the fourth generic paper describing the ABINIT project.
- Note that a version of this paper, that is not formatted for Computer Phys. Comm. 
- is available at https://www.abinit.org/sites/default/files/ABINIT16.pdf .
- The licence allows the authors to put it on the Web.
- DOI and bibtex: see https://docs.abinit.org/theory/bibliography/#gonze2016
 Proc.   0 individual time (sec): cpu=      18338.0  wall=      18360.2

 Calculation completed.
.Delivered   1 WARNINGs and   0 COMMENTs to log file.

--- !FinalSummary
program: abinit
version: 9.2.2
start_datetime: Sun Mar 17 00:48:10 2024
end_datetime: Sun Mar 17 05:54:10 2024
overall_cpu_time:       73353.2
overall_wall_time:       73440.9
exit_requested_by_user: no 
timelimit: 0
pseudos: 
    Sn  : c918e999fc214fef37654f9ff7d5f03d
    Se  : f801923bd422df98a30264e8ccc86374
    Zn  : 80c9b4d1484b64588a366a4998a7c40d
usepaw: 0
mpi_procs: 4
omp_threads: 1
num_warnings: 1
num_comments: 0
...
