  ABINIT 9.2.2
  
 DeprecationWarning: 

     The files file has been deprecated in Abinit9 and will be removed in Abinit10.
     Use the syntax `abinit t01.abi` where t01.abi is an input with pseudopotenials.

            pseudos = "al.psp8, as.psp8"


  Give name for formatted input file: 
Cs2TiI6.in
  Give name for formatted output file:
Cs2TiI6.out
  Give root name for generic input files:
Cs2TiI6i
  Give root name for generic output files:
Cs2TiI6o
  Give root name for generic temporary files:
Cs2TiI6

.Version 9.2.2 of ABINIT 
.(MPI version, prepared for a x86_64_linux_gnu9.3 computer) 

.Copyright (C) 1998-2020 ABINIT group . 
 ABINIT comes with ABSOLUTELY NO WARRANTY.
 It is free software, and you are welcome to redistribute it
 under certain conditions (GNU General Public License,
 see ~abinit/COPYING or http://www.gnu.org/copyleft/gpl.txt).

 ABINIT is a project of the Universite Catholique de Louvain,
 Corning Inc. and other collaborators, see ~abinit/doc/developers/contributors.txt .
 Please read https://docs.abinit.org/theory/acknowledgments for suggested
 acknowledgments of the ABINIT effort.
 For more information, see https://www.abinit.org .

.Starting date : Sat 16 Mar 2024.
- ( at 21h59 )
  
- The starting date is more than 3 years after the initial release
- of this version of ABINIT, namely Nov 2020.
- This version of ABINIT is not supported anymore.
- Action: please, switch to a more recent version of ABINIT.

 ++++++++++++++++++++++++++++++++++++++++++++++++++++++++++++++++++++++++++++++

 === Build Information === 
  Version       : 9.2.2
  Build target  : x86_64_linux_gnu9.3
  Build date    : 20210501

 === Compiler Suite === 
  C compiler       : gnu9.3
  C++ compiler     : generic0.0
  Fortran compiler : gnu9.3
  CFLAGS           : -g -O2 -mtune=native -march=native
  CXXFLAGS         : 
  FCFLAGS          : -g -ffree-line-length-none
  FC_LDFLAGS       : 

 === Optimizations === 
  Debug level        : basic
  Optimization level : standard
  Architecture       : unknown_unknown

 === Multicore === 
  Parallel build : yes
  Parallel I/O   : yes
  openMP support : 
  GPU support    : 

 === Connectors / Fallbacks === 
  LINALG flavor  : netlib
  FFT flavor     : goedecker
  HDF5           : yes
  NetCDF         : yes
  NetCDF Fortran : yes
  LibXC          : yes
  Wannier90      : no

 === Experimental features === 
  Exports             : 
  GW double-precision : 

 ++++++++++++++++++++++++++++++++++++++++++++++++++++++++++++++++++++++++++++++


 ++++++++++++++++++++++++++++++++++++++++++++++++++++++++++++++++++++++++++++++
 Default optimizations:
   -O2 -mtune=native -march=native


 Optimizations for 43_ptgroups:
   -O0


 ++++++++++++++++++++++++++++++++++++++++++++++++++++++++++++++++++++++++++++++


 ++++++++++++++++++++++++++++++++++++++++++++++++++++++++++++++++++++++++++++++
 CPP options activated during the build:

                    CC_GNU                    FC_GNU HAVE_FC_ALLOCATABLE_DT...
 
             HAVE_FC_ASYNC         HAVE_FC_BACKTRACE  HAVE_FC_COMMAND_ARGUMENT
 
      HAVE_FC_COMMAND_LINE        HAVE_FC_CONTIGUOUS           HAVE_FC_CPUTIME
 
              HAVE_FC_EXIT             HAVE_FC_FLUSH             HAVE_FC_GAMMA
 
            HAVE_FC_GETENV   HAVE_FC_IEEE_ARITHMETIC   HAVE_FC_IEEE_EXCEPTIONS
 
          HAVE_FC_INT_QUAD             HAVE_FC_IOMSG     HAVE_FC_ISO_C_BINDING
 
  HAVE_FC_ISO_FORTRAN_2008        HAVE_FC_LONG_LINES        HAVE_FC_MOVE_ALLOC
 
  HAVE_FC_ON_THE_FLY_SHAPE           HAVE_FC_PRIVATE         HAVE_FC_PROTECTED
 
           HAVE_FC_SHIFTLR         HAVE_FC_STREAM_IO            HAVE_FC_SYSTEM
 
          HAVE_FORTRAN2003                 HAVE_HDF5        HAVE_LIBPAW_ABINIT
 
      HAVE_LIBTETRA_ABINIT                HAVE_LIBXC                  HAVE_MPI
 
                 HAVE_MPI2       HAVE_MPI_IALLGATHER       HAVE_MPI_IALLREDUCE
 
        HAVE_MPI_IALLTOALL       HAVE_MPI_IALLTOALLV           HAVE_MPI_IBCAST
 
         HAVE_MPI_IGATHERV        HAVE_MPI_INTEGER16               HAVE_MPI_IO
 
 HAVE_MPI_TYPE_CREATE_S...               HAVE_NETCDF       HAVE_NETCDF_FORTRAN
 
             HAVE_OS_LINUX         HAVE_TIMER_ABINIT                            
 ++++++++++++++++++++++++++++++++++++++++++++++++++++++++++++++++++++++++++++++

- input  file    -> Cs2TiI6.in
- output file    -> Cs2TiI6.out
- root for input  files -> Cs2TiI6i
- root for output files -> Cs2TiI6o

-instrng: 44 lines of input have been read from file Cs2TiI6.in


 Please give name of formatted atomic psp file (and finish with a newline character)
 For atom type 1, psp file is ../../../Psps_for_tests/ATOMICDATA_NC/Sn.psp8

 Please give name of formatted atomic psp file (and finish with a newline character)
 For atom type 2, psp file is ../../../Psps_for_tests/ATOMICDATA_NC/Se.psp8

 Please give name of formatted atomic psp file (and finish with a newline character)
 For atom type 3, psp file is ../../../Psps_for_tests/ATOMICDATA_NC/Zn.psp8
  read the values zionpsp= 14.0 , pspcod=   8 , lmax=   2
  read the values zionpsp= 16.0 , pspcod=   8 , lmax=   2
  read the values zionpsp= 20.0 , pspcod=   8 , lmax=   2

 inpspheads: deduce mpsang = 3, n1xccc = 2501.

======================================================= 
 invars1m : enter jdtset= 0

 symlatt: the Bravais lattice is tP (primitive tetragonal)
  xred   is defined in input file
 ingeo: takes atomic coordinates from input array xred

--- !WARNING
src_file: m_ingeo.F90
src_line: 887
message: |
    The tolerance on symmetries =   1.000E-05 is bigger than 1.0e-8.
    In order to avoid spurious effects, the atomic coordinates have been
    symmetrized before storing them in the dataset internal variable.
    So, do not be surprised by the fact that your input variables (xcart, xred, ...)
    do not correspond to the ones echoed by ABINIT, the latter being used to do the calculations.
    In order to avoid this symmetrization (e.g. for specific debugging/development), decrease tolsym to 1.0e-8 or lower.
...


 symlatt: the Bravais lattice is tP (primitive tetragonal)

 symlatt: the Bravais lattice is tP (primitive tetragonal)
 symspgr: spgroup=  99  P4 m m   (=C4v^1)
 symspgr: optical characteristics = uniaxial
 Optical axis (in reduced coordinates, real space ) :   0   0   1
 invars2: take the default value of fband=  1.25000000E-01
 For input ecut=  2.250000E+01 best grid ngfft=      36      36     192
       max ecut=  2.300617E+01

 ==== FFT mesh ====
  FFT mesh divisions ........................    36   36  192
  Augmented FFT divisions ...................    37   37  192
  FFT algorithm .............................   112
  FFT cache size ............................    16
 getmpw: optimal value of mpw= 13700

 Symmetries : space group P4 m m (# 99); Bravais tP (primitive tetrag.)

 getdim_nloc : deduce lmnmax  =  18, lnmax  =   6,
                      lmnmaxso=  18, lnmaxso=   6.
memory: analysis of memory needs
================================================================================
 Values of the parameters that define the memory need of the present run
     intxc =       0    ionmov =       0      iscf =      17    lmnmax =       6
     lnmax =       6     mgfft =     192  mpssoang =       3    mqgrid =    9494
     natom =      12  nloc_mem =       1    nspden =       1   nspinor =       1
    nsppol =       1      nsym =       8    n1xccc =    2501    ntypat =       3
    occopt =       1   xclevel =       2
-    mband =          98        mffmem =           1         mkmem =           1
       mpw =       13700          nfft =      248832          nkpt =           6
================================================================================
P This job should need less than                     110.340 Mbytes of memory.
  Rough estimation (10% accuracy) of disk space for files :
_ WF disk file :    122.921 Mbytes ; DEN or POT disk file :      1.900 Mbytes.
================================================================================

 Biggest array : f_fftgr(disk), with     30.3770 MBytes.
 memana : allocated an array of     30.377 Mbytes, for testing purposes.
 memana: allocated     110.340Mbytes, for testing purposes. 
 The job will continue.
--------------------------------------------------------------------------------
------------- Echo of variables that govern the present computation ------------
--------------------------------------------------------------------------------
-
- outvars: echo of selected default values                                      
-   iomode0 =  0 , fftalg0 =112 , wfoptalg0 =  0
-
- outvars: echo of global parameters not present in the input file              
-  max_nthreads =    0
-
 -outvars: echo values of preprocessed input variables --------
 
 These variables are accessible in NetCDF format (Cs2TiI6o_OUT.nc)

            acell      7.7624316804E+00  7.7624316804E+00  7.7624316804E+00 Bohr
              amu      1.18710000E+02  7.89600000E+01  6.53900000E+01
           diemac      1.20000000E+01
             ecut      2.25000000E+01 Hartree
-          fftalg         112
             iscf          17
              ixc          11
              kpt      8.33333333E-02  8.33333333E-02  5.00000000E-01
                       2.50000000E-01  8.33333333E-02  5.00000000E-01
                       4.16666667E-01  8.33333333E-02  5.00000000E-01
                       2.50000000E-01  2.50000000E-01  5.00000000E-01
                       4.16666667E-01  2.50000000E-01  5.00000000E-01
                       4.16666667E-01  4.16666667E-01  5.00000000E-01
         kptrlatt        6    0    0      0    6    0      0    0    1
          kptrlen      4.65745901E+01
P           mkmem           1
            natom          12
            nband          98
            ngfft          36      36     192
             nkpt           6
            nstep         150
             nsym           8
           ntypat           3
              occ      2.000000  2.000000  2.000000  2.000000  2.000000  2.000000
                       2.000000  2.000000  2.000000  2.000000  2.000000  2.000000
                       2.000000  2.000000  2.000000  2.000000  2.000000  2.000000
                       2.000000  2.000000  2.000000  2.000000  2.000000  2.000000
                       2.000000  2.000000  2.000000  2.000000  2.000000  2.000000
                       2.000000  2.000000  2.000000  2.000000  2.000000  2.000000
                       2.000000  2.000000  2.000000  2.000000  2.000000  2.000000
                       2.000000  2.000000  2.000000  2.000000  2.000000  2.000000
                       2.000000  2.000000  2.000000  2.000000  2.000000  2.000000
                       2.000000  2.000000  2.000000  2.000000  2.000000  2.000000
                       2.000000  2.000000  2.000000  2.000000  2.000000  2.000000
                       2.000000  2.000000  2.000000  2.000000  2.000000  2.000000
                       2.000000  2.000000  2.000000  2.000000  2.000000  2.000000
                       2.000000  2.000000  2.000000  2.000000  2.000000  2.000000
                       2.000000  2.000000  2.000000  2.000000  2.000000  2.000000
                       2.000000  2.000000  2.000000  2.000000  2.000000  2.000000
                       0.000000  0.000000
           prtcif           1
            prtwf           0
            rprim      1.0000000000E+00  0.0000000000E+00  0.0000000000E+00
                       0.0000000000E+00  1.0000000000E+00  0.0000000000E+00
                       0.0000000000E+00  0.0000000000E+00  5.7277782079E+00
           shiftk      5.00000000E-01  5.00000000E-01  5.00000000E-01
          spgroup          99
           symrel      1  0  0   0  1  0   0  0  1       1  0  0   0 -1  0   0  0  1
                      -1  0  0   0 -1  0   0  0  1      -1  0  0   0  1  0   0  0  1
                       0  1  0   1  0  0   0  0  1       0  1  0  -1  0  0   0  0  1
                       0 -1  0  -1  0  0   0  0  1       0 -1  0   1  0  0   0  0  1
            tnons      0.0000000  0.0000000  0.0000000     0.0000000  0.0000000  0.0000000
                       0.0000000  0.0000000  0.0000000     0.0000000  0.0000000  0.0000000
                       0.5000000  0.5000000  0.0000000     0.5000000  0.5000000  0.0000000
                       0.5000000  0.5000000  0.0000000     0.5000000  0.5000000  0.0000000
           toldfe      1.00000000E-07 Hartree
            typat      1  1  1  1  2  2  2  2  2  2  3  3
           vdw_xc           5
              wtk        0.11111    0.22222    0.22222    0.11111    0.22222    0.11111
           xangst      2.0538509643E+00  0.0000000000E+00  4.6664740448E+00
                       0.0000000000E+00  2.0538509643E+00  7.4160979462E+00
                       2.0538509643E+00  0.0000000000E+00  1.0102196232E+01
                       0.0000000000E+00  2.0538509643E+00  1.2851820134E+01
                       0.0000000000E+00  2.0538509643E+00  4.6982368524E+00
                       2.0538509643E+00  0.0000000000E+00  7.3843351386E+00
                       0.0000000000E+00  2.0538509643E+00  1.0133959040E+01
                       2.0538509643E+00  0.0000000000E+00  1.2820057326E+01
                       2.0538509643E+00  0.0000000000E+00  1.5871522011E+01
                       0.0000000000E+00  2.0538509643E+00  1.8861531546E+01
                       2.0538509643E+00  2.0538509643E+00  1.7366538543E+01
                       0.0000000000E+00  0.0000000000E+00  1.7366538543E+01
            xcart      3.8812158402E+00  0.0000000000E+00  8.8183579509E+00
                       0.0000000000E+00  3.8812158402E+00  1.4014394093E+01
                       3.8812158402E+00  0.0000000000E+00  1.9090384220E+01
                       0.0000000000E+00  3.8812158402E+00  2.4286420362E+01
                       0.0000000000E+00  3.8812158402E+00  8.8783809584E+00
                       3.8812158402E+00  0.0000000000E+00  1.3954371085E+01
                       0.0000000000E+00  3.8812158402E+00  1.9150407227E+01
                       3.8812158402E+00  0.0000000000E+00  2.4226397354E+01
                       3.8812158402E+00  0.0000000000E+00  2.9992829913E+01
                       0.0000000000E+00  3.8812158402E+00  3.5643129068E+01
                       3.8812158402E+00  3.8812158402E+00  3.2818001722E+01
                       0.0000000000E+00  0.0000000000E+00  3.2818001722E+01
             xred      5.0000000000E-01  0.0000000000E+00  1.9833700000E-01
                       0.0000000000E+00  5.0000000000E-01  3.1520300000E-01
                       5.0000000000E-01  0.0000000000E+00  4.2936900000E-01
                       0.0000000000E+00  5.0000000000E-01  5.4623500000E-01
                       0.0000000000E+00  5.0000000000E-01  1.9968700000E-01
                       5.0000000000E-01  0.0000000000E+00  3.1385300000E-01
                       0.0000000000E+00  5.0000000000E-01  4.3071900000E-01
                       5.0000000000E-01  0.0000000000E+00  5.4488500000E-01
                       5.0000000000E-01  0.0000000000E+00  6.7458000000E-01
                       0.0000000000E+00  5.0000000000E-01  8.0166300000E-01
                       5.0000000000E-01  5.0000000000E-01  7.3812200000E-01
                       0.0000000000E+00  0.0000000000E+00  7.3812200000E-01
            znucl       50.00000   34.00000   30.00000

================================================================================

 chkinp: Checking input parameters for consistency.
 DATA TYPE INFORMATION: 
 REAL:      Data type name: REAL(DP) 
            Kind value:      8
            Precision:      15
            Smallest nonnegligible quantity relative to 1: 0.22204460E-015
            Smallest positive number:                      0.22250739E-307
            Largest representable number:                  0.17976931E+309
 INTEGER:   Data type name: INTEGER(default) 
            Kind value: 4
            Bit size:   32
            Largest representable number: 2147483647
 LOGICAL:   Data type name: LOGICAL 
            Kind value: 4
 CHARACTER: Data type name: CHARACTER             Kind value: 1

  ==== OpenMP parallelism is OFF ====
 
  ==== Using MPI-2 specifications ==== 
  MPI-IO support is ON
  xmpi_tag_ub ................   2147483647
  xmpi_bsize_ch ..............            1
  xmpi_bsize_int .............            4
  xmpi_bsize_sp ..............            4
  xmpi_bsize_dp ..............            8
  xmpi_bsize_spc .............            8
  xmpi_bsize_dpc .............           16
  xmpio_bsize_frm ............            4
  xmpi_address_kind ..........            8
  xmpi_offset_kind ...........            8
  MPI_WTICK ..................    1.0000000000000001E-009

================================================================================
== DATASET  1 ==================================================================
-   mpi_nproc: 6, omp_nthreads: -1 (-1 if OMP is not activated)


--- !COMMENT
src_file: m_xgScalapack.F90
src_line: 236
message: |
    xgScalapack in auto mode
...


 getdim_nloc : deduce lmnmax  =  18, lnmax  =   6,
                      lmnmaxso=  18, lnmaxso=   6.
 Exchange-correlation functional for the present dataset will be:
  GGA: Perdew-Burke-Ernzerhof functional - ixc=11
 Citation for XC functional:
  J.P.Perdew, K.Burke, M.Ernzerhof, PRL 77, 3865 (1996)

 Unit cell volume ucvol=  2.6790423E+03 bohr^3
 Angles (23,13,12)=  9.00000000E+01  9.00000000E+01  9.00000000E+01 degrees

 getcut: wavevector=  0.0000  0.0000  0.0000  ngfft=  36  36 192
         ecut(hartree)=     22.500   => boxcut(ratio)=   2.02237
- pspini: atom type   1  psp file is ../../../Psps_for_tests/ATOMICDATA_NC/Sn.psp8
- pspatm: opening atomic psp file    ../../../Psps_for_tests/ATOMICDATA_NC/Sn.psp8
- Sn    ONCVPSP  r_core=  2.27  2.62  1.86
- 50.00000  14.00000    150810                znucl, zion, pspdat
    8   11    2    4       600   0.00000      pspcod,pspxc,lmax,lloc,mmax,r2well
    5.99000000000000    6.50000000000000    0.00000000000000   rchrg,fchrg,qchrg
     nproj     2     2     2
     extension_switch     1
  valence charge integrates to:    13.912521222389802     
  pspatm : epsatm=   32.65190642
         --- l  ekb(1:nproj) -->
             0    5.462393    0.682281
             1    4.443814    0.825686
             2   -5.382195   -1.704077
 pspatm: atomic psp has been read  and splines computed

- pspini: atom type   2  psp file is ../../../Psps_for_tests/ATOMICDATA_NC/Se.psp8
- pspatm: opening atomic psp file    ../../../Psps_for_tests/ATOMICDATA_NC/Se.psp8
- Se    ONCVPSP  r_core=  1.82  1.50  1.91
- 34.00000  16.00000    150729                znucl, zion, pspdat
    8   11    2    4       600   0.00000      pspcod,pspxc,lmax,lloc,mmax,r2well
    5.99000000000000    5.00000000000000    0.00000000000000   rchrg,fchrg,qchrg
     nproj     2     2     2
     extension_switch     1
  valence charge integrates to:    15.981819523532332     
  pspatm : epsatm=   29.53325930
         --- l  ekb(1:nproj) -->
             0    8.612261    0.939919
             1    6.984962    1.281898
             2   -9.322521   -3.856218
 pspatm: atomic psp has been read  and splines computed

- pspini: atom type   3  psp file is ../../../Psps_for_tests/ATOMICDATA_NC/Zn.psp8
- pspatm: opening atomic psp file    ../../../Psps_for_tests/ATOMICDATA_NC/Zn.psp8
- Zn    ONCVPSP  r_core=  1.36  1.66  1.85
- 30.00000  20.00000    161102                znucl, zion, pspdat
    8   11    2    4       600   0.00000      pspcod,pspxc,lmax,lloc,mmax,r2well
    5.99000000000000    2.50000000000000    0.00000000000000   rchrg,fchrg,qchrg
     nproj     2     2     2
     extension_switch     1
  valence charge integrates to:    19.977025053306086     
  pspatm : epsatm=   26.67245340
         --- l  ekb(1:nproj) -->
             0    2.404235   -1.533451
             1   -4.677427   -1.530630
             2   -7.000316   -2.622858
 pspatm: atomic psp has been read  and splines computed

   6.93412010E+04                                ecore*ucvol(ha*bohr**3)
 ==== Info on pseudopotentials ====
  Norm-conserving pseudopotentials
  Number of pseudopotentials ..    3
  Number of types of atoms   ..    3
  Scalar calculation (no spin-orbit term)
  Nonlocal part applied using Legendre polynomials
  Max number of non-local projectors over l and type   2
  Highest angular momentum +1 .......   3
  Max number of (l,n)   components ..   6
  Max number of (l,m,n) components ..   6

 Pseudo-Core Charge Info: 
   Number of radial points for pseudo-core charge .. 2501
   XC core-correction treatment (optnlxccc) ........    1
   Radius for pseudo-core charge for each type ..... 

  - Atom type    1 has pseudo-core radius ..  5.9900
  - Atom type    2 has pseudo-core radius ..  5.9900
  - Atom type    3 has pseudo-core radius ..  5.9900

 Info on the Q-grid used for form factors in spline form: 
   Number of q-points for radial functions ffspl ..   9494
   Number of q-points for vlspl ...................   9494
   vloc is computed in Reciprocal Space
   model core charge treated in real-space

  XC functional for type 1 is 11
  Pseudo valence available: yes
  XC functional for type 2 is 11
  Pseudo valence available: yes
  XC functional for type 3 is 11
  Pseudo valence available: yes

 wfconv:    98 bands initialized randomly with npw= 13700, for ikpt=     1
_setup2: Arith. and geom. avg. npw (full set) are   13662.667   13662.657
 initro: for itypat=  1, take pseudo charge density from pp file
 initro: for itypat=  2, take pseudo charge density from pp file
 initro: for itypat=  3, take pseudo charge density from pp file

================================================================================

 getcut: wavevector=  0.0000  0.0000  0.0000  ngfft=  36  36 192
         ecut(hartree)=     22.500   => boxcut(ratio)=   2.02237

 1/G**2 cut-off applied in the following step : cutoff-mode = CRYSTAL

  --------------------------------------------------------------
  Van der Waals DFT-D2 semi-empirical dispersion potential added
      with following parameters:
      Specie  C6 (J.nm^6.mol^-1)  R0 (Ang)
      ------------------------------------
         Sn           38.71         1.804
         Se           12.64         1.771
         Zn           10.80         1.562

      Scaling factor   =   0.75
      Damping parameter=  20.00
      Cut-off radius   = 130.92 bohr

      Number of pairs contributing =   272988
      DFT-D2 energy contribution   =   -1.32217E-01 Ha
  --------------------------------------------------------------


 1/G**2 cut-off applied in the following step : cutoff-mode = CRYSTAL

 1/G**2 cut-off applied in the following step : cutoff-mode = CRYSTAL

--- !WARNING
src_file: m_drivexc.F90
src_line: 707
message: |
    Density went too small (lower than xc_denpos) at 17112 points
    and was set to xc_denpos =   1.00E-14. Lowest was  -0.60E-03.
    Likely due to too low boxcut or too low ecut for pseudopotential core charge.
...


 ITER STEP NUMBER     1
 vtorho: nnsclo_now = 2, note that nnsclo, dbl_nnsclo, istep= 0 0 1
 Total charge density [el/Bohr^3]
      Maximum=    3.2658E+00  at reduced coord.    0.5000    0.5000    0.7292
      Minimum=    3.3002E-03  at reduced coord.    0.2500    0.2500    0.0000
   Integrated=    1.9200E+02
 ETOT  1  -1432.9783246854    -1.433E+03 7.511E-01 1.804E+03
 scprqt: <Vxc>= -2.9712037E-01 hartree

 Simple mixing update:
  residual square of the potential:    1175.2777614601707

 1/G**2 cut-off applied in the following step : cutoff-mode = CRYSTAL

--- !WARNING
src_file: m_drivexc.F90
src_line: 707
message: |
    Density went too small (lower than xc_denpos) at 6784 points
    and was set to xc_denpos =   1.00E-14. Lowest was  -0.19E-03.
    Likely due to too low boxcut or too low ecut for pseudopotential core charge.
...

 scfcv_core: previous iteration took 37.24 [s]

 ITER STEP NUMBER     2
 vtorho: nnsclo_now = 2, note that nnsclo, dbl_nnsclo, istep= 0 0 2
 Total charge density [el/Bohr^3]
      Maximum=    5.9176E+00  at reduced coord.    0.9722    0.9722    0.7292
      Minimum=    1.8896E-04  at reduced coord.    0.5000    0.0000    0.0885
   Integrated=    1.9200E+02
 ETOT  2  -1541.8552860010    -1.089E+02 4.790E-01 5.910E+03
 scprqt: <Vxc>= -3.1944855E-01 hartree

 Pulay update with  1 previous iterations:
 mixing of old trial potential: alpha(m:m-4)=  0.380      0.620

--- !WARNING
src_file: m_drivexc.F90
src_line: 707
message: |
    Density went too small (lower than xc_denpos) at 13197 points
    and was set to xc_denpos =   1.00E-14. Lowest was  -0.48E-03.
    Likely due to too low boxcut or too low ecut for pseudopotential core charge.
...

 scfcv_core: previous iteration took 36.31 [s]

 ITER STEP NUMBER     3
 vtorho: nnsclo_now = 1, note that nnsclo, dbl_nnsclo, istep= 0 0 3
 Total charge density [el/Bohr^3]
      Maximum=    3.9248E+00  at reduced coord.    0.5000    0.5278    0.7292
      Minimum=    1.0467E-03  at reduced coord.    0.0000    0.0000    0.9531
   Integrated=    1.9200E+02
 ETOT  3  -1433.3688618833     1.085E+02 1.116E+01 1.506E+03
 scprqt: <Vxc>= -3.1812840E-01 hartree

 Pulay update with  2 previous iterations:
 mixing of old trial potential: alpha(m:m-4)=  0.254      0.308      0.438

--- !WARNING
src_file: m_drivexc.F90
src_line: 707
message: |
    Density went too small (lower than xc_denpos) at 7425 points
    and was set to xc_denpos =   1.00E-14. Lowest was  -0.26E-03.
    Likely due to too low boxcut or too low ecut for pseudopotential core charge.
...

 scfcv_core: previous iteration took 18.56 [s]

 ITER STEP NUMBER     4
 vtorho: nnsclo_now = 1, note that nnsclo, dbl_nnsclo, istep= 0 0 4
 Total charge density [el/Bohr^3]
      Maximum=    3.8277E+00  at reduced coord.    0.5000    0.5278    0.7292
      Minimum=    1.5110E-04  at reduced coord.    0.0000    0.0000    0.9531
   Integrated=    1.9200E+02
 ETOT  4  -1463.5207455996    -3.015E+01 9.366E-01 8.781E+02
 scprqt: <Vxc>= -3.2577966E-01 hartree

 Pulay update with  3 previous iterations:
 mixing of old trial potential: alpha(m:m-4)=  0.458      0.610E-02  0.249      0.287
 scfcv_core: previous iteration took 18.52 [s]

 ITER STEP NUMBER     5
 vtorho: nnsclo_now = 1, note that nnsclo, dbl_nnsclo, istep= 0 0 5
 Total charge density [el/Bohr^3]
      Maximum=    4.3334E+00  at reduced coord.    0.5000    0.5000    0.7500
      Minimum=    4.9057E-05  at reduced coord.    0.5000    0.0000    0.0052
   Integrated=    1.9200E+02
 ETOT  5  -1451.0572365159     1.246E+01 1.633E+00 4.569E+02
 scprqt: <Vxc>= -3.2535674E-01 hartree

 Pulay update with  4 previous iterations:
 mixing of old trial potential: alpha(m:m-4)=  0.292      0.192      0.412E-01  0.168      0.307
 scfcv_core: previous iteration took 18.58 [s]

 ITER STEP NUMBER     6
 vtorho: nnsclo_now = 1, note that nnsclo, dbl_nnsclo, istep= 0 0 6
 Total charge density [el/Bohr^3]
      Maximum=    4.5669E+00  at reduced coord.    0.0000    0.9444    0.7448
      Minimum=    1.5001E-05  at reduced coord.    0.5000    0.0000    0.0052
   Integrated=    1.9200E+02
 ETOT  6  -1457.6474455934    -6.590E+00 1.098E-01 4.977E+02
 scprqt: <Vxc>= -3.2319386E-01 hartree

 Pulay update with  5 previous iterations:
 mixing of old trial potential: alpha(m:m-4)= -0.237      0.479      0.224      0.439E-01  0.193
 scfcv_core: previous iteration took 18.33 [s]

 ITER STEP NUMBER     7
 vtorho: nnsclo_now = 1, note that nnsclo, dbl_nnsclo, istep= 0 0 7
 Total charge density [el/Bohr^3]
      Maximum=    4.6192E+00  at reduced coord.    0.0000    0.9444    0.7448
      Minimum=    9.3173E-06  at reduced coord.    0.1944    0.3056    0.0000
   Integrated=    1.9200E+02
 ETOT  7  -1459.7447150995    -2.097E+00 4.148E-02 6.152E+02
 scprqt: <Vxc>= -3.2484212E-01 hartree

 Pulay update with  6 previous iterations:
 mixing of old trial potential: alpha(m:m-4)=  0.117     -0.406      0.513      0.232      0.465E-01
 scfcv_core: previous iteration took 18.33 [s]

 ITER STEP NUMBER     8
 vtorho: nnsclo_now = 1, note that nnsclo, dbl_nnsclo, istep= 0 0 8
 Total charge density [el/Bohr^3]
      Maximum=    4.6289E+00  at reduced coord.    0.0000    0.9444    0.7448
      Minimum=    7.9302E-06  at reduced coord.    0.1944    0.3056    0.0000
   Integrated=    1.9200E+02
 ETOT  8  -1459.9719576012    -2.272E-01 8.362E-03 6.445E+02
 scprqt: <Vxc>= -3.2515316E-01 hartree

 Pulay update with  7 previous iterations:
 mixing of old trial potential: alpha(m:m-4)=  -9.23       8.28       1.67     -0.149      0.133
 scfcv_core: previous iteration took 18.24 [s]

 ITER STEP NUMBER     9
 vtorho: nnsclo_now = 1, note that nnsclo, dbl_nnsclo, istep= 0 0 9
 Total charge density [el/Bohr^3]
      Maximum=    4.4072E+00  at reduced coord.    0.5000    0.5556    0.7448
      Minimum=    1.0049E-05  at reduced coord.    0.3889    0.1111    0.9844
   Integrated=    1.9200E+02
 ETOT  9  -1456.6303448503     3.342E+00 8.905E-02 1.875E+02
 scprqt: <Vxc>= -3.1815103E-01 hartree

 Pulay update with  7 previous iterations:
 mixing of old trial potential: alpha(m:m-4)=  0.995      -11.2       8.08       4.29      -1.01

--- !WARNING
src_file: m_drivexc.F90
src_line: 707
message: |
    Density went too small (lower than xc_denpos) at 1459 points
    and was set to xc_denpos =   1.00E-14. Lowest was  -0.13E-02.
    Likely due to too low boxcut or too low ecut for pseudopotential core charge.
...

 scfcv_core: previous iteration took 18.01 [s]

 ITER STEP NUMBER    10
 vtorho: nnsclo_now = 1, note that nnsclo, dbl_nnsclo, istep= 0 0 10
 Total charge density [el/Bohr^3]
      Maximum=    3.7110E+00  at reduced coord.    0.0000    0.9444    0.7448
      Minimum=    1.3833E-05  at reduced coord.    0.2222    0.2778    0.0208
   Integrated=    1.9200E+02
 ETOT 10  -1455.0475941144     1.583E+00 6.100E-02 4.553E+02
 scprqt: <Vxc>= -2.9446250E-01 hartree

 Pulay update with  7 previous iterations:
 mixing of old trial potential: alpha(m:m-4)=  0.425     -0.391E-01  -3.72       2.76       2.04
 scfcv_core: previous iteration took 18.16 [s]

 ITER STEP NUMBER    11
 vtorho: nnsclo_now = 1, note that nnsclo, dbl_nnsclo, istep= 0 0 11
 Total charge density [el/Bohr^3]
      Maximum=    4.1374E+00  at reduced coord.    0.0000    0.9444    0.7448
      Minimum=    1.0292E-05  at reduced coord.    0.5000    0.0000    0.0052
   Integrated=    1.9200E+02
 ETOT 11  -1452.6067836567     2.441E+00 7.182E-02 1.155E+01
 scprqt: <Vxc>= -3.0705874E-01 hartree

 Pulay update with  7 previous iterations:
 mixing of old trial potential: alpha(m:m-4)=  0.797      0.193     -0.429      -1.04      0.853
 scfcv_core: previous iteration took 18.14 [s]

 ITER STEP NUMBER    12
 vtorho: nnsclo_now = 1, note that nnsclo, dbl_nnsclo, istep= 0 0 12
 Total charge density [el/Bohr^3]
      Maximum=    4.1027E+00  at reduced coord.    0.0000    0.9444    0.7448
      Minimum=    1.1159E-05  at reduced coord.    0.1944    0.3056    0.0000
   Integrated=    1.9200E+02
 ETOT 12  -1453.0064322900    -3.996E-01 5.958E-02 7.546E+00
 scprqt: <Vxc>= -3.0479372E-01 hartree

 Pulay update with  7 previous iterations:
 mixing of old trial potential: alpha(m:m-4)=  0.888      0.506E-01  0.202     -0.505      0.733
 scfcv_core: previous iteration took 18.40 [s]

 ITER STEP NUMBER    13
 vtorho: nnsclo_now = 1, note that nnsclo, dbl_nnsclo, istep= 0 0 13
 Total charge density [el/Bohr^3]
      Maximum=    4.0740E+00  at reduced coord.    0.0000    0.9444    0.7448
      Minimum=    7.7648E-06  at reduced coord.    0.1944    0.3056    0.0000
   Integrated=    1.9200E+02
 ETOT 13  -1453.0305391378    -2.411E-02 2.342E-02 5.268E+00
 scprqt: <Vxc>= -3.0081562E-01 hartree

 Pulay update with  7 previous iterations:
 mixing of old trial potential: alpha(m:m-4)=   1.07     -0.196      0.109      0.386E-01 -0.818E-01
 scfcv_core: previous iteration took 18.33 [s]

 ITER STEP NUMBER    14
 vtorho: nnsclo_now = 1, note that nnsclo, dbl_nnsclo, istep= 0 0 14
 Total charge density [el/Bohr^3]
      Maximum=    4.1269E+00  at reduced coord.    0.0000    0.9444    0.7448
      Minimum=    7.9576E-06  at reduced coord.    0.1944    0.3056    0.0000
   Integrated=    1.9200E+02
 ETOT 14  -1453.0015945958     2.894E-02 3.530E-02 2.496E+00
 scprqt: <Vxc>= -3.0137443E-01 hartree

 Pulay update with  7 previous iterations:
 mixing of old trial potential: alpha(m:m-4)=  0.632      0.396     -0.974E-01 -0.708E-01  0.633E-01
 scfcv_core: previous iteration took 18.18 [s]

 ITER STEP NUMBER    15
 vtorho: nnsclo_now = 1, note that nnsclo, dbl_nnsclo, istep= 0 0 15
 Total charge density [el/Bohr^3]
      Maximum=    4.1062E+00  at reduced coord.    0.0000    0.9444    0.7448
      Minimum=    7.4080E-06  at reduced coord.    0.1944    0.3056    0.0000
   Integrated=    1.9200E+02
 ETOT 15  -1452.9887946953     1.280E-02 7.564E-03 5.095E-01
 scprqt: <Vxc>= -3.0131999E-01 hartree

 Pulay update with  7 previous iterations:
 mixing of old trial potential: alpha(m:m-4)=  0.877      0.101      0.407E-01  0.116     -0.239
 scfcv_core: previous iteration took 18.23 [s]

 ITER STEP NUMBER    16
 vtorho: nnsclo_now = 1, note that nnsclo, dbl_nnsclo, istep= 0 0 16
 Total charge density [el/Bohr^3]
      Maximum=    4.1098E+00  at reduced coord.    0.0000    0.9444    0.7448
      Minimum=    7.6732E-06  at reduced coord.    0.1944    0.3056    0.0000
   Integrated=    1.9200E+02
 ETOT 16  -1452.9700313530     1.876E-02 3.254E-03 2.306E-01
 scprqt: <Vxc>= -3.0024322E-01 hartree

 Pulay update with  7 previous iterations:
 mixing of old trial potential: alpha(m:m-4)=  0.645      0.342     -0.247E-01  0.403E-01  0.965E-01
 scfcv_core: previous iteration took 18.47 [s]

 ITER STEP NUMBER    17
 vtorho: nnsclo_now = 1, note that nnsclo, dbl_nnsclo, istep= 0 0 17
 Total charge density [el/Bohr^3]
      Maximum=    4.1080E+00  at reduced coord.    0.0000    0.9444    0.7448
      Minimum=    7.7286E-06  at reduced coord.    0.1944    0.3056    0.0000
   Integrated=    1.9200E+02
 ETOT 17  -1452.9616797204     8.352E-03 3.047E-03 1.029E-01
 scprqt: <Vxc>= -2.9955427E-01 hartree

 Pulay update with  7 previous iterations:
 mixing of old trial potential: alpha(m:m-4)=  0.908      0.752E-01  0.697E-02 -0.291E-01  0.311E-01
 scfcv_core: previous iteration took 18.32 [s]

 ITER STEP NUMBER    18
 vtorho: nnsclo_now = 1, note that nnsclo, dbl_nnsclo, istep= 0 0 18
 Total charge density [el/Bohr^3]
      Maximum=    4.1042E+00  at reduced coord.    0.0000    0.9444    0.7448
      Minimum=    7.9790E-06  at reduced coord.    0.1944    0.3056    0.0000
   Integrated=    1.9200E+02
 ETOT 18  -1452.9573009089     4.379E-03 7.337E-04 1.841E-02
 scprqt: <Vxc>= -2.9860814E-01 hartree

 Pulay update with  7 previous iterations:
 mixing of old trial potential: alpha(m:m-4)=   1.37     -0.511      0.300E-01  0.835E-01  0.245E-01
 scfcv_core: previous iteration took 18.27 [s]

 ITER STEP NUMBER    19
 vtorho: nnsclo_now = 1, note that nnsclo, dbl_nnsclo, istep= 0 0 19
 Total charge density [el/Bohr^3]
      Maximum=    4.1021E+00  at reduced coord.    0.0000    0.9444    0.7448
      Minimum=    8.0515E-06  at reduced coord.    0.1944    0.3056    0.0000
   Integrated=    1.9200E+02
 ETOT 19  -1452.9561497926     1.151E-03 9.677E-04 5.979E-03
 scprqt: <Vxc>= -2.9774793E-01 hartree

 Pulay update with  7 previous iterations:
 mixing of old trial potential: alpha(m:m-4)=  0.861      0.261     -0.222      0.665E-01  0.106E-01
 scfcv_core: previous iteration took 18.34 [s]

 ITER STEP NUMBER    20
 vtorho: nnsclo_now = 1, note that nnsclo, dbl_nnsclo, istep= 0 0 20
 Total charge density [el/Bohr^3]
      Maximum=    4.1025E+00  at reduced coord.    0.0000    0.9444    0.7448
      Minimum=    8.1067E-06  at reduced coord.    0.3333    0.1667    0.9896
   Integrated=    1.9200E+02
 ETOT 20  -1452.9558909038     2.589E-04 1.963E-04 2.401E-03
 scprqt: <Vxc>= -2.9716131E-01 hartree

 Pulay update with  7 previous iterations:
 mixing of old trial potential: alpha(m:m-4)=   1.09      0.790E-01 -0.167     -0.240E-01  0.241E-01
 scfcv_core: previous iteration took 18.34 [s]

 ITER STEP NUMBER    21
 vtorho: nnsclo_now = 1, note that nnsclo, dbl_nnsclo, istep= 0 0 21
 Total charge density [el/Bohr^3]
      Maximum=    4.1024E+00  at reduced coord.    0.0000    0.9444    0.7448
      Minimum=    8.1709E-06  at reduced coord.    0.3333    0.1667    0.9896
   Integrated=    1.9200E+02
 ETOT 21  -1452.9556992825     1.916E-04 2.525E-04 1.031E-03
 scprqt: <Vxc>= -2.9634496E-01 hartree

 Pulay update with  7 previous iterations:
 mixing of old trial potential: alpha(m:m-4)=  0.986      0.100     -0.362E-01 -0.543E-01  0.111E-01
 scfcv_core: previous iteration took 18.48 [s]

 ITER STEP NUMBER    22
 vtorho: nnsclo_now = 1, note that nnsclo, dbl_nnsclo, istep= 0 0 22
 Total charge density [el/Bohr^3]
      Maximum=    4.1023E+00  at reduced coord.    0.0000    0.9444    0.7448
      Minimum=    8.2006E-06  at reduced coord.    0.3333    0.1667    0.9896
   Integrated=    1.9200E+02
 ETOT 22  -1452.9556531610     4.612E-05 5.419E-05 5.938E-04
 scprqt: <Vxc>= -2.9570679E-01 hartree

 Pulay update with  7 previous iterations:
 mixing of old trial potential: alpha(m:m-4)=   1.47     -0.230     -0.311      0.395E-01  0.285E-01
 scfcv_core: previous iteration took 18.41 [s]

 ITER STEP NUMBER    23
 vtorho: nnsclo_now = 1, note that nnsclo, dbl_nnsclo, istep= 0 0 23
 Total charge density [el/Bohr^3]
      Maximum=    4.1022E+00  at reduced coord.    0.0000    0.9444    0.7448
      Minimum=    8.2311E-06  at reduced coord.    0.3333    0.1667    0.9896
   Integrated=    1.9200E+02
 ETOT 23  -1452.9556646302    -1.147E-05 5.040E-05 2.400E-04
 scprqt: <Vxc>= -2.9477297E-01 hartree

 Pulay update with  7 previous iterations:
 mixing of old trial potential: alpha(m:m-4)=   1.36     -0.719E-01 -0.234     -0.775E-01 -0.102E-03
 scfcv_core: previous iteration took 18.27 [s]

 ITER STEP NUMBER    24
 vtorho: nnsclo_now = 1, note that nnsclo, dbl_nnsclo, istep= 0 0 24
 Total charge density [el/Bohr^3]
      Maximum=    4.1021E+00  at reduced coord.    0.0000    0.9444    0.7448
      Minimum=    8.2250E-06  at reduced coord.    0.3333    0.1667    0.9896
   Integrated=    1.9200E+02
 ETOT 24  -1452.9557167928    -5.216E-05 1.096E-05 6.698E-05
 scprqt: <Vxc>= -2.9375036E-01 hartree

 Pulay update with  7 previous iterations:
 mixing of old trial potential: alpha(m:m-4)=   1.43     -0.559E-01 -0.582      0.155      0.761E-01
 scfcv_core: previous iteration took 18.34 [s]

 ITER STEP NUMBER    25
 vtorho: nnsclo_now = 1, note that nnsclo, dbl_nnsclo, istep= 0 0 25
 Total charge density [el/Bohr^3]
      Maximum=    4.1021E+00  at reduced coord.    0.0000    0.9444    0.7448
      Minimum=    8.1729E-06  at reduced coord.    0.3333    0.1667    0.9896
   Integrated=    1.9200E+02
 ETOT 25  -1452.9557638408    -4.705E-05 1.109E-05 8.431E-06
 scprqt: <Vxc>= -2.9267676E-01 hartree

 Pulay update with  7 previous iterations:
 mixing of old trial potential: alpha(m:m-4)=   1.00      0.293     -0.279     -0.120      0.731E-01
 scfcv_core: previous iteration took 18.12 [s]

 ITER STEP NUMBER    26
 vtorho: nnsclo_now = 1, note that nnsclo, dbl_nnsclo, istep= 0 0 26
 Total charge density [el/Bohr^3]
      Maximum=    4.1021E+00  at reduced coord.    0.0000    0.9444    0.7448
      Minimum=    8.1482E-06  at reduced coord.    0.3333    0.1667    0.9896
   Integrated=    1.9200E+02
 ETOT 26  -1452.9557736579    -9.817E-06 6.279E-06 1.363E-06
 scprqt: <Vxc>= -2.9221631E-01 hartree

 Pulay update with  7 previous iterations:
 mixing of old trial potential: alpha(m:m-4)=   1.03      0.139     -0.170     -0.583E-01  0.671E-01
 scfcv_core: previous iteration took 17.47 [s]

 ITER STEP NUMBER    27
 vtorho: nnsclo_now = 1, note that nnsclo, dbl_nnsclo, istep= 0 0 27
 Total charge density [el/Bohr^3]
      Maximum=    4.1021E+00  at reduced coord.    0.0000    0.9444    0.7448
      Minimum=    8.1460E-06  at reduced coord.    0.3333    0.1667    0.9896
   Integrated=    1.9200E+02
 ETOT 27  -1452.9557748482    -1.190E-06 8.291E-06 2.433E-07
 scprqt: <Vxc>= -2.9207000E-01 hartree

 Pulay update with  7 previous iterations:
 mixing of old trial potential: alpha(m:m-4)=   1.13      0.742E-01 -0.209     -0.361E-01  0.551E-01
 scfcv_core: previous iteration took 17.82 [s]

 ITER STEP NUMBER    28
 vtorho: nnsclo_now = 1, note that nnsclo, dbl_nnsclo, istep= 0 0 28
 Total charge density [el/Bohr^3]
      Maximum=    4.1021E+00  at reduced coord.    0.0000    0.9444    0.7448
      Minimum=    8.1432E-06  at reduced coord.    0.3333    0.1667    0.9896
   Integrated=    1.9200E+02
 ETOT 28  -1452.9557750019    -1.537E-07 5.056E-06 6.186E-08
 scprqt: <Vxc>= -2.9201854E-01 hartree

 Pulay update with  7 previous iterations:
 mixing of old trial potential: alpha(m:m-4)=  0.883      0.226     -0.506E-01 -0.738E-01  0.973E-04
 scfcv_core: previous iteration took 17.73 [s]

 ITER STEP NUMBER    29
 vtorho: nnsclo_now = 1, note that nnsclo, dbl_nnsclo, istep= 0 0 29
 Total charge density [el/Bohr^3]
      Maximum=    4.1021E+00  at reduced coord.    0.0000    0.9444    0.7448
      Minimum=    8.1420E-06  at reduced coord.    0.3333    0.1667    0.9896
   Integrated=    1.9200E+02
 ETOT 29  -1452.9557750245    -2.265E-08 7.065E-06 2.374E-08
 scprqt: <Vxc>= -2.9200489E-01 hartree

 Pulay update with  7 previous iterations:
 mixing of old trial potential: alpha(m:m-4)=   1.15      0.697E-01 -0.229     -0.135E-01  0.266E-01
 scfcv_core: previous iteration took 18.27 [s]

 ITER STEP NUMBER    30
 vtorho: nnsclo_now = 1, note that nnsclo, dbl_nnsclo, istep= 0 0 30
 Total charge density [el/Bohr^3]
      Maximum=    4.1021E+00  at reduced coord.    0.0000    0.9444    0.7448
      Minimum=    8.1408E-06  at reduced coord.    0.3333    0.1667    0.9896
   Integrated=    1.9200E+02
 ETOT 30  -1452.9557750363    -1.181E-08 4.388E-06 7.553E-09
 scprqt: <Vxc>= -2.9199596E-01 hartree

 At SCF step   30, etot is converged : 
  for the second time, diff in etot=  1.181E-08 < toldfe=  1.000E-07

 Cartesian components of stress tensor (hartree/bohr^3)
  sigma(1 1)=  1.50250951E-02  sigma(3 2)=  0.00000000E+00
  sigma(2 2)=  1.50250951E-02  sigma(3 1)=  0.00000000E+00
  sigma(3 3)=  1.48932370E-02  sigma(2 1)=  0.00000000E+00


   fftdatar_write: About to write data to: Cs2TiI6o_DEN with iomode: IO_MODE_FORTRAN
 IO operation completed. cpu:  0.00 [s] , wall:  0.00 [s] <<< TIME
- Creating netcdf file WITHOUT MPI-IO support: Cs2TiI6o_GSR.nc
 Integrated electronic density in atomic spheres:
 ------------------------------------------------
 Atom  Sphere_radius  Integrated_density
    1        2.00000         10.57132729
    2        2.00000         10.56861599
    3        2.00000         10.56245340
    4        2.00000         10.56251537
    5        2.00000         13.27991324
    6        2.00000         13.32182121
    7        2.00000         13.30423158
    8        2.00000         13.27194027
    9        2.00000         13.26842061
   10        2.00000         13.29193700
   11        2.00000         18.09956549
   12        2.00000         18.09956549
================================================================================

 ----iterations are completed or convergence reached----


 === Gap info ===
  >>>> For spin  1
   Minimum direct gap =   0.8863 [eV], located at k-point      :   0.4167  0.0833  0.5000
   Fundamental gap    =   0.7650 [eV], Top of valence bands at :   0.2500  0.2500  0.5000
                                       Bottom of conduction at :   0.4167  0.0833  0.5000
 Mean square residual over all n,k,spin=   96.548E-10; max=  43.885E-07
   0.0833  0.0833  0.5000    1  1.60506E-09 kpt; spin; max resid(k); each band:
   4.64E-15  6.15E-15  4.62E-15  4.43E-15  1.18E-14  1.02E-14  3.88E-15  4.08E-15
   8.29E-13  3.47E-13  3.79E-13  3.78E-13  5.80E-13  1.25E-12  4.49E-13  1.11E-12
   8.95E-13  4.58E-13  9.31E-13  6.41E-13  9.79E-13  8.22E-13  6.72E-13  4.72E-13
   4.96E-13  7.62E-13  4.43E-13  7.59E-13  1.51E-13  4.18E-13  7.11E-13  6.14E-13
   2.79E-13  9.49E-14  4.06E-13  2.01E-13  5.37E-13  4.88E-13  2.92E-13  2.53E-13
   2.84E-13  2.67E-13  3.04E-13  2.63E-13  1.24E-13  1.19E-13  1.01E-13  1.10E-13
   1.30E-13  1.82E-14  5.52E-14  4.04E-14  6.35E-14  6.14E-14  2.54E-15  5.53E-15
   1.63E-14  1.79E-14  4.11E-13  2.72E-12  2.82E-12  4.03E-12  3.75E-12  1.67E-12
   3.88E-14  1.68E-13  5.46E-14  5.66E-14  2.15E-13  3.00E-14  7.68E-14  6.60E-14
   4.69E-15  4.19E-15  4.46E-13  8.07E-13  8.42E-13  3.50E-12  3.46E-12  2.64E-12
   3.13E-13  1.96E-12  2.27E-12  2.13E-12  1.57E-12  1.26E-12  7.92E-13  4.00E-12
   1.48E-12  7.07E-13  2.40E-12  4.09E-12  9.83E-13  3.21E-12  4.19E-12  6.49E-12
   2.62E-10  1.61E-09
   0.2500  0.0833  0.5000    1  4.38847E-06 kpt; spin; max resid(k); each band:
   4.45E-15  4.24E-15  4.48E-15  3.98E-15  4.10E-15  1.14E-14  1.06E-14  4.13E-15
   3.20E-13  3.51E-13  3.70E-13  5.53E-13  3.72E-13  6.93E-13  6.41E-13  1.09E-12
   7.72E-13  6.38E-13  8.98E-13  1.11E-12  6.40E-13  1.10E-12  7.08E-13  7.41E-13
   6.60E-13  4.47E-13  3.05E-13  7.00E-13  5.27E-13  7.14E-13  1.99E-13  2.46E-13
   3.27E-13  7.20E-13  4.75E-13  4.89E-13  3.66E-13  1.90E-13  2.90E-13  2.66E-13
   2.95E-13  2.67E-13  1.45E-13  1.04E-13  2.99E-13  2.63E-13  1.15E-13  2.03E-14
   8.52E-14  5.17E-14  1.05E-13  3.11E-14  4.75E-14  6.12E-14  6.44E-15  3.39E-14
   1.57E-14  1.75E-14  3.91E-13  2.49E-12  2.47E-12  2.76E-12  2.59E-12  1.65E-12
   4.32E-14  7.47E-14  1.35E-13  1.05E-13  1.18E-13  5.24E-14  1.24E-14  1.33E-13
   3.78E-13  1.06E-14  7.27E-13  6.76E-13  8.54E-13  1.08E-12  2.41E-12  3.82E-12
   4.29E-12  5.53E-13  1.00E-12  4.50E-12  3.44E-12  2.83E-12  1.62E-12  1.96E-12
   4.00E-12  4.24E-12  2.83E-12  1.40E-12  3.54E-12  4.81E-13  1.95E-12  3.18E-12
   3.79E-09  4.39E-06
   0.4167  0.0833  0.5000    1  5.42092E-10 kpt; spin; max resid(k); each band:
   4.27E-15  4.05E-15  4.36E-15  4.08E-15  4.15E-15  1.09E-14  4.02E-15  1.13E-14
   5.20E-13  4.74E-13  3.55E-13  6.27E-13  6.55E-13  6.02E-13  5.64E-13  4.75E-13
   7.66E-13  1.10E-12  5.54E-13  8.81E-13  7.43E-13  8.69E-13  1.07E-12  1.29E-12
   8.34E-13  4.32E-13  5.99E-13  3.25E-13  3.51E-13  5.00E-13  1.39E-13  3.99E-13
   2.00E-13  8.13E-13  3.69E-13  4.34E-13  3.06E-13  4.31E-13  9.95E-14  9.27E-14
   1.07E-13  1.14E-13  7.90E-14  2.93E-13  3.23E-13  2.88E-13  8.38E-14  1.59E-13
   6.96E-14  4.62E-14  5.01E-14  3.23E-14  2.93E-14  5.94E-14  1.00E-14  2.71E-14
   7.17E-15  1.40E-14  3.05E-13  1.76E-12  1.05E-12  1.11E-12  1.73E-12  8.68E-13
   9.14E-13  3.44E-13  2.01E-12  1.73E-12  3.33E-13  4.87E-14  5.47E-13  5.89E-14
   2.24E-14  6.10E-14  9.82E-14  1.39E-13  8.12E-13  8.63E-13  1.26E-12  6.59E-13
   1.83E-12  1.91E-12  6.02E-13  2.37E-12  2.33E-12  2.84E-12  4.11E-12  2.97E-12
   4.20E-12  3.29E-12  2.17E-12  3.32E-12  7.29E-13  9.02E-13  3.09E-12  3.45E-12
   8.17E-11  5.42E-10
   0.2500  0.2500  0.5000    1  8.46996E-08 kpt; spin; max resid(k); each band:
   4.41E-15  4.04E-15  4.18E-15  3.77E-15  4.51E-15  1.13E-14  1.07E-14  3.97E-15
   4.92E-13  6.67E-13  3.49E-13  6.10E-13  3.54E-13  4.60E-13  7.33E-13  5.32E-13
   9.25E-13  5.84E-13  8.44E-13  8.08E-13  5.73E-13  3.95E-13  4.07E-13  5.05E-13
   5.65E-13  8.91E-13  6.56E-13  6.45E-13  1.28E-13  5.97E-13  5.72E-13  4.07E-13
   6.83E-13  6.54E-13  1.87E-13  2.51E-13  2.83E-13  5.41E-13  1.57E-13  7.89E-14
   1.00E-13  1.35E-13  2.05E-13  1.93E-13  2.05E-13  1.30E-14  1.19E-13  2.80E-13
   1.29E-13  9.79E-14  2.51E-14  3.37E-14  2.85E-14  6.26E-14  1.59E-14  2.17E-14
   2.38E-14  4.62E-15  3.63E-13  2.05E-12  1.81E-12  1.93E-12  1.91E-12  1.45E-12
   5.32E-14  1.52E-13  5.88E-14  5.35E-14  6.37E-14  2.72E-14  8.65E-15  3.75E-14
   4.31E-13  5.60E-14  6.94E-13  6.30E-13  8.13E-13  9.54E-13  1.48E-12  3.24E-13
   1.94E-12  2.71E-12  1.92E-12  2.73E-12  6.53E-13  7.73E-13  3.34E-12  3.32E-12
   1.12E-12  2.42E-12  2.02E-12  3.63E-12  1.72E-12  1.54E-12  7.81E-13  2.36E-12
   9.72E-11  8.47E-08
   0.4167  0.2500  0.5000    1  4.28414E-07 kpt; spin; max resid(k); each band:
   4.56E-15  4.30E-15  4.23E-15  4.39E-15  1.08E-14  1.10E-14  3.74E-15  4.13E-15
   4.49E-13  4.53E-13  4.60E-13  6.72E-13  5.53E-13  7.16E-13  9.51E-13  6.44E-13
   9.55E-13  7.23E-13  5.47E-13  6.42E-13  7.35E-13  7.61E-13  4.94E-13  2.61E-13
   6.61E-13  6.12E-13  5.05E-13  3.41E-13  2.50E-13  3.35E-13  4.80E-13  4.88E-13
   2.05E-13  2.62E-13  1.50E-13  2.30E-13  3.22E-13  4.03E-13  3.23E-13  2.86E-13
   8.79E-14  2.74E-13  1.34E-13  1.53E-13  2.87E-13  1.33E-13  9.95E-14  2.59E-13
   1.41E-13  9.62E-14  1.88E-14  2.67E-14  2.11E-14  8.89E-14  1.30E-14  2.52E-14
   2.17E-14  4.15E-15  3.35E-13  1.43E-12  4.97E-13  7.32E-13  1.44E-12  8.00E-13
   5.95E-14  4.75E-14  3.66E-14  1.11E-13  1.97E-13  9.74E-14  2.03E-13  6.33E-14
   2.21E-12  2.28E-12  1.41E-12  1.55E-12  9.57E-13  1.21E-12  9.78E-13  8.37E-13
   4.82E-13  7.15E-13  2.73E-12  6.68E-13  1.09E-12  1.19E-12  3.45E-12  4.12E-12
   3.96E-12  4.02E-12  2.21E-12  3.67E-12  2.87E-12  1.00E-12  2.36E-12  2.70E-12
   2.72E-11  4.28E-07
   0.4167  0.4167  0.5000    1  7.68470E-07 kpt; spin; max resid(k); each band:
   4.54E-15  4.30E-15  4.47E-15  3.58E-15  4.76E-15  1.10E-14  3.76E-15  1.11E-14
   4.58E-13  5.01E-13  2.83E-13  3.58E-13  9.28E-13  6.13E-13  1.10E-12  1.16E-12
   4.15E-13  7.67E-13  6.91E-13  3.63E-13  9.56E-13  8.45E-13  1.37E-12  1.90E-13
   6.82E-13  7.08E-13  6.91E-13  7.52E-13  1.38E-13  6.71E-13  4.23E-13  3.90E-13
   1.89E-13  9.44E-13  8.88E-13  4.51E-13  4.61E-13  4.83E-13  1.99E-13  2.06E-13
   2.49E-13  3.25E-13  2.48E-13  1.40E-13  2.31E-13  3.07E-13  1.21E-13  3.07E-13
   2.31E-13  8.59E-14  1.35E-15  1.71E-14  3.05E-14  2.01E-14  1.01E-13  2.67E-14
   2.26E-14  9.19E-16  1.31E-12  1.40E-12  1.61E-13  3.68E-13  1.19E-12  6.48E-13
   5.32E-14  4.39E-14  3.46E-14  2.07E-14  1.40E-13  5.41E-14  1.64E-13  1.86E-14
   8.32E-14  6.46E-14  5.43E-13  6.00E-13  8.94E-13  1.19E-12  3.15E-13  7.91E-13
   2.84E-12  2.92E-12  7.56E-13  6.50E-13  7.25E-13  2.86E-12  2.97E-12  9.04E-13
   3.76E-12  1.66E-12  1.20E-12  3.65E-12  4.33E-12  3.69E-12  2.23E-12  2.61E-12
   9.66E-11  7.68E-07
 prteigrs : about to open file Cs2TiI6o_EIG
 Fermi (or HOMO) energy (hartree) =   0.10217   Average Vxc (hartree)=  -0.29200
 Eigenvalues (hartree) for nkpt=   6  k points:
 kpt#   1, nband= 98, wtk=  0.11111, kpt=  0.0833  0.0833  0.5000 (reduced coord)
  -4.75286   -4.75285   -2.99036   -2.99004   -2.98806   -2.98793   -2.98748   -2.98733
  -1.70839   -1.70818   -1.70731   -1.70626   -1.70529   -1.70408   -1.70312   -1.70298
  -1.70272   -1.70229   -1.70146   -1.70076   -1.70029   -1.69991   -1.69863   -1.69618
  -1.69597   -1.69511   -1.69295   -1.69295   -1.68565   -1.68463   -1.68335   -1.68302
  -1.68263   -1.68175   -1.68096   -1.68038   -1.67843   -1.67765   -0.69872   -0.69856
  -0.69724   -0.69722   -0.69707   -0.69707   -0.69674   -0.69656   -0.69621   -0.69618
  -0.69604   -0.69584   -0.69581   -0.69446   -0.69441   -0.69419   -0.69312   -0.69311
  -0.69268   -0.69251   -0.44966   -0.42971   -0.42388   -0.40261   -0.39330   -0.38406
  -0.21579   -0.21410   -0.21327   -0.21313   -0.21225   -0.20116   -0.19979   -0.19896
  -0.19408   -0.19322   -0.16992   -0.15996   -0.13038   -0.11359   -0.09445   -0.08429
  -0.06583   -0.04204   -0.04046   -0.03543   -0.03126   -0.01450   -0.01075   -0.00721
   0.00499    0.00511    0.03226    0.03503    0.03862    0.04046    0.04099    0.09045
   0.13492    0.14549
 kpt#   2, nband= 98, wtk=  0.22222, kpt=  0.2500  0.0833  0.5000 (reduced coord)
  -4.75286   -4.75284   -2.98937   -2.98802   -2.98782   -2.98768   -2.98744   -2.98733
  -1.70736   -1.70642   -1.70613   -1.70355   -1.70254   -1.70227   -1.70198   -1.70171
  -1.70060   -1.70000   -1.69913   -1.69829   -1.69787   -1.69737   -1.69663   -1.69566
  -1.69438   -1.69294   -1.69200   -1.69108   -1.68464   -1.68341   -1.68262   -1.68166
  -1.68065   -1.67917   -1.67867   -1.67753   -1.67689   -1.67554   -0.69820   -0.69803
  -0.69689   -0.69677   -0.69669   -0.69653   -0.69651   -0.69639   -0.69606   -0.69591
  -0.69582   -0.69568   -0.69506   -0.69453   -0.69423   -0.69383   -0.69273   -0.69266
  -0.69249   -0.69244   -0.43908   -0.42242   -0.41682   -0.40074   -0.38951   -0.38430
  -0.21510   -0.21063   -0.21007   -0.20961   -0.20816   -0.20276   -0.19824   -0.19765
  -0.19541   -0.19496   -0.19251   -0.18575   -0.16215   -0.13650   -0.10806   -0.09060
  -0.07972   -0.06150   -0.03759   -0.02459   -0.01870   -0.01171   -0.00044    0.00803
   0.00922    0.01491    0.02785    0.03462    0.04506    0.06794    0.07412    0.10163
   0.14065    0.15591
 kpt#   3, nband= 98, wtk=  0.22222, kpt=  0.4167  0.0833  0.5000 (reduced coord)
  -4.75285   -4.75285   -2.98928   -2.98861   -2.98822   -2.98752   -2.98749   -2.98741
  -1.70613   -1.70572   -1.70491   -1.70473   -1.70367   -1.70205   -1.70182   -1.70171
  -1.70083   -1.70035   -1.70022   -1.69963   -1.69891   -1.69822   -1.69753   -1.69579
  -1.69471   -1.69319   -1.69305   -1.69254   -1.68535   -1.68279   -1.68214   -1.68143
  -1.68077   -1.68049   -1.67912   -1.67876   -1.67750   -1.67745   -0.69767   -0.69745
  -0.69714   -0.69705   -0.69682   -0.69660   -0.69655   -0.69637   -0.69618   -0.69605
  -0.69584   -0.69567   -0.69533   -0.69472   -0.69429   -0.69370   -0.69306   -0.69286
  -0.69256   -0.69243   -0.42211   -0.41349   -0.41070   -0.40070   -0.38729   -0.38618
  -0.21281   -0.21162   -0.20881   -0.20742   -0.20674   -0.20570   -0.20474   -0.20387
  -0.20138   -0.20117   -0.19951   -0.19592   -0.18582   -0.17313   -0.11767   -0.11671
  -0.06676   -0.03786   -0.03250   -0.01657   -0.01012   -0.00093    0.00479    0.00995
   0.01129    0.01760    0.02499    0.03807    0.07316    0.08169    0.08636    0.09772
   0.13029    0.13122
 kpt#   4, nband= 98, wtk=  0.11111, kpt=  0.2500  0.2500  0.5000 (reduced coord)
  -4.75287   -4.75284   -2.98922   -2.98867   -2.98859   -2.98817   -2.98801   -2.98748
  -1.70827   -1.70730   -1.70674   -1.70541   -1.70463   -1.70301   -1.70262   -1.70184
  -1.70169   -1.70127   -1.70064   -1.69994   -1.69950   -1.69936   -1.69796   -1.69539
  -1.69523   -1.69444   -1.69436   -1.69292   -1.68535   -1.68342   -1.68318   -1.68257
  -1.68178   -1.68124   -1.67932   -1.67903   -1.67871   -1.67868   -0.69801   -0.69791
  -0.69764   -0.69755   -0.69697   -0.69675   -0.69644   -0.69634   -0.69627   -0.69599
  -0.69597   -0.69572   -0.69522   -0.69473   -0.69469   -0.69387   -0.69337   -0.69286
  -0.69279   -0.69231   -0.42922   -0.41610   -0.41043   -0.39860   -0.38503   -0.38227
  -0.21833   -0.20933   -0.20792   -0.20739   -0.20535   -0.20381   -0.20009   -0.19961
  -0.19739   -0.19681   -0.19304   -0.18512   -0.16305   -0.14378   -0.10794   -0.10237
  -0.08225   -0.07814   -0.07511   -0.05327   -0.04397   -0.02370   -0.01773   -0.01393
   0.00341    0.00785    0.01182    0.03141    0.05747    0.06153    0.07571    0.10217
   0.13920    0.15468
 kpt#   5, nband= 98, wtk=  0.22222, kpt=  0.4167  0.2500  0.5000 (reduced coord)
  -4.75286   -4.75285   -2.98960   -2.98889   -2.98817   -2.98816   -2.98807   -2.98745
  -1.70787   -1.70730   -1.70604   -1.70438   -1.70353   -1.70252   -1.70238   -1.70197
  -1.70153   -1.70112   -1.70106   -1.70062   -1.70023   -1.69929   -1.69891   -1.69565
  -1.69525   -1.69489   -1.69460   -1.69364   -1.68449   -1.68346   -1.68302   -1.68289
  -1.68263   -1.68155   -1.68004   -1.67960   -1.67955   -1.67863   -0.69819   -0.69789
  -0.69776   -0.69749   -0.69693   -0.69674   -0.69642   -0.69633   -0.69625   -0.69616
  -0.69592   -0.69571   -0.69524   -0.69486   -0.69463   -0.69380   -0.69353   -0.69297
  -0.69273   -0.69234   -0.41435   -0.40874   -0.40545   -0.39731   -0.38179   -0.38027
  -0.21631   -0.20944   -0.20725   -0.20641   -0.20529   -0.20148   -0.20144   -0.20036
  -0.19852   -0.19840   -0.19639   -0.19415   -0.16975   -0.16177   -0.11217   -0.10695
  -0.09344   -0.07438   -0.05894   -0.05027   -0.04501   -0.04256   -0.03456   -0.02312
  -0.01303   -0.00848   -0.00000    0.00829    0.02061    0.03353    0.05540    0.07461
   0.15588    0.18008
 kpt#   6, nband= 98, wtk=  0.11111, kpt=  0.4167  0.4167  0.5000 (reduced coord)
  -4.75286   -4.75285   -2.98942   -2.98862   -2.98820   -2.98812   -2.98793   -2.98719
  -1.70696   -1.70648   -1.70538   -1.70422   -1.70283   -1.70268   -1.70230   -1.70200
  -1.70140   -1.70136   -1.70092   -1.70040   -1.70016   -1.69968   -1.69958   -1.69565
  -1.69521   -1.69460   -1.69399   -1.69353   -1.68408   -1.68390   -1.68206   -1.68149
  -1.68119   -1.68052   -1.68024   -1.67897   -1.67783   -1.67742   -0.69842   -0.69810
  -0.69785   -0.69753   -0.69695   -0.69685   -0.69654   -0.69631   -0.69603   -0.69588
  -0.69576   -0.69545   -0.69512   -0.69479   -0.69473   -0.69400   -0.69342   -0.69283
  -0.69265   -0.69217   -0.40472   -0.40368   -0.40053   -0.39386   -0.37576   -0.37390
  -0.21803   -0.21462   -0.20576   -0.20546   -0.20235   -0.19909   -0.19847   -0.19821
  -0.19787   -0.19777   -0.17826   -0.17632   -0.14784   -0.14035   -0.12984   -0.10912
  -0.10667   -0.10127   -0.09429   -0.08337   -0.06986   -0.06124   -0.04840   -0.04757
  -0.03790   -0.02774   -0.02483   -0.02238   -0.01359   -0.00532    0.05438    0.06647
   0.17145    0.18767
 Total charge density [el/Bohr^3]
      Maximum=    4.1021E+00  at reduced coord.    0.0000    0.9444    0.7448
 Next maximum=    4.1021E+00  at reduced coord.    0.5556    0.5000    0.7448
      Minimum=    8.1408E-06  at reduced coord.    0.3333    0.1667    0.9896
 Next minimum=    8.1408E-06  at reduced coord.    0.6667    0.1667    0.9896
   Integrated=    1.9200E+02

 Cartesian components of stress tensor (hartree/bohr^3)
  sigma(1 1)=  1.50250951E-02  sigma(3 2)=  0.00000000E+00
  sigma(2 2)=  1.50250951E-02  sigma(3 1)=  0.00000000E+00
  sigma(3 3)=  1.48932370E-02  sigma(2 1)=  0.00000000E+00

-Cartesian components of stress tensor (GPa)         [Pressure= -4.4076E+02 GPa]
- sigma(1 1)=  4.42053484E+02  sigma(3 2)=  0.00000000E+00
- sigma(2 2)=  4.42053484E+02  sigma(3 1)=  0.00000000E+00
- sigma(3 3)=  4.38174087E+02  sigma(2 1)=  0.00000000E+00

== END DATASET(S) ==============================================================
================================================================================
  
 -outvars: echo values of variables after computation  --------
 
 These variables are accessible in NetCDF format (Cs2TiI6o_OUT.nc)

            acell      7.7624316804E+00  7.7624316804E+00  7.7624316804E+00 Bohr
              amu      1.18710000E+02  7.89600000E+01  6.53900000E+01
           diemac      1.20000000E+01
             ecut      2.25000000E+01 Hartree
           etotal     -1.4529557750E+03
            fcart     -0.0000000000E+00 -0.0000000000E+00 -1.4499981993E-02
                      -0.0000000000E+00 -0.0000000000E+00 -1.9678022725E-02
                      -0.0000000000E+00 -0.0000000000E+00  1.4245273393E-02
                      -0.0000000000E+00 -0.0000000000E+00  1.1263436612E-02
                      -0.0000000000E+00 -0.0000000000E+00 -1.5132704799E-02
                      -0.0000000000E+00 -0.0000000000E+00 -1.6332753743E-02
                      -0.0000000000E+00 -0.0000000000E+00  1.2073933993E-02
                      -0.0000000000E+00 -0.0000000000E+00 -3.7676027452E-03
                      -0.0000000000E+00 -0.0000000000E+00  1.2971412443E-02
                      -0.0000000000E+00 -0.0000000000E+00 -1.2472290450E-02
                      -0.0000000000E+00 -0.0000000000E+00  1.5664650007E-02
                      -0.0000000000E+00 -0.0000000000E+00  1.5664650007E-02
-          fftalg         112
             iscf          17
              ixc          11
              kpt      8.33333333E-02  8.33333333E-02  5.00000000E-01
                       2.50000000E-01  8.33333333E-02  5.00000000E-01
                       4.16666667E-01  8.33333333E-02  5.00000000E-01
                       2.50000000E-01  2.50000000E-01  5.00000000E-01
                       4.16666667E-01  2.50000000E-01  5.00000000E-01
                       4.16666667E-01  4.16666667E-01  5.00000000E-01
         kptrlatt        6    0    0      0    6    0      0    0    1
          kptrlen      4.65745901E+01
P           mkmem           1
            natom          12
            nband          98
            ngfft          36      36     192
             nkpt           6
            nstep         150
             nsym           8
           ntypat           3
              occ      2.000000  2.000000  2.000000  2.000000  2.000000  2.000000
                       2.000000  2.000000  2.000000  2.000000  2.000000  2.000000
                       2.000000  2.000000  2.000000  2.000000  2.000000  2.000000
                       2.000000  2.000000  2.000000  2.000000  2.000000  2.000000
                       2.000000  2.000000  2.000000  2.000000  2.000000  2.000000
                       2.000000  2.000000  2.000000  2.000000  2.000000  2.000000
                       2.000000  2.000000  2.000000  2.000000  2.000000  2.000000
                       2.000000  2.000000  2.000000  2.000000  2.000000  2.000000
                       2.000000  2.000000  2.000000  2.000000  2.000000  2.000000
                       2.000000  2.000000  2.000000  2.000000  2.000000  2.000000
                       2.000000  2.000000  2.000000  2.000000  2.000000  2.000000
                       2.000000  2.000000  2.000000  2.000000  2.000000  2.000000
                       2.000000  2.000000  2.000000  2.000000  2.000000  2.000000
                       2.000000  2.000000  2.000000  2.000000  2.000000  2.000000
                       2.000000  2.000000  2.000000  2.000000  2.000000  2.000000
                       2.000000  2.000000  2.000000  2.000000  2.000000  2.000000
                       0.000000  0.000000
           prtcif           1
            prtwf           0
            rprim      1.0000000000E+00  0.0000000000E+00  0.0000000000E+00
                       0.0000000000E+00  1.0000000000E+00  0.0000000000E+00
                       0.0000000000E+00  0.0000000000E+00  5.7277782079E+00
           shiftk      5.00000000E-01  5.00000000E-01  5.00000000E-01
          spgroup          99
           strten      1.5025095060E-02  1.5025095060E-02  1.4893237015E-02
                       0.0000000000E+00  0.0000000000E+00  0.0000000000E+00
           symrel      1  0  0   0  1  0   0  0  1       1  0  0   0 -1  0   0  0  1
                      -1  0  0   0 -1  0   0  0  1      -1  0  0   0  1  0   0  0  1
                       0  1  0   1  0  0   0  0  1       0  1  0  -1  0  0   0  0  1
                       0 -1  0  -1  0  0   0  0  1       0 -1  0   1  0  0   0  0  1
            tnons      0.0000000  0.0000000  0.0000000     0.0000000  0.0000000  0.0000000
                       0.0000000  0.0000000  0.0000000     0.0000000  0.0000000  0.0000000
                       0.5000000  0.5000000  0.0000000     0.5000000  0.5000000  0.0000000
                       0.5000000  0.5000000  0.0000000     0.5000000  0.5000000  0.0000000
           toldfe      1.00000000E-07 Hartree
            typat      1  1  1  1  2  2  2  2  2  2  3  3
           vdw_xc           5
              wtk        0.11111    0.22222    0.22222    0.11111    0.22222    0.11111
           xangst      2.0538509643E+00  0.0000000000E+00  4.6664740448E+00
                       0.0000000000E+00  2.0538509643E+00  7.4160979462E+00
                       2.0538509643E+00  0.0000000000E+00  1.0102196232E+01
                       0.0000000000E+00  2.0538509643E+00  1.2851820134E+01
                       0.0000000000E+00  2.0538509643E+00  4.6982368524E+00
                       2.0538509643E+00  0.0000000000E+00  7.3843351386E+00
                       0.0000000000E+00  2.0538509643E+00  1.0133959040E+01
                       2.0538509643E+00  0.0000000000E+00  1.2820057326E+01
                       2.0538509643E+00  0.0000000000E+00  1.5871522011E+01
                       0.0000000000E+00  2.0538509643E+00  1.8861531546E+01
                       2.0538509643E+00  2.0538509643E+00  1.7366538543E+01
                       0.0000000000E+00  0.0000000000E+00  1.7366538543E+01
            xcart      3.8812158402E+00  0.0000000000E+00  8.8183579509E+00
                       0.0000000000E+00  3.8812158402E+00  1.4014394093E+01
                       3.8812158402E+00  0.0000000000E+00  1.9090384220E+01
                       0.0000000000E+00  3.8812158402E+00  2.4286420362E+01
                       0.0000000000E+00  3.8812158402E+00  8.8783809584E+00
                       3.8812158402E+00  0.0000000000E+00  1.3954371085E+01
                       0.0000000000E+00  3.8812158402E+00  1.9150407227E+01
                       3.8812158402E+00  0.0000000000E+00  2.4226397354E+01
                       3.8812158402E+00  0.0000000000E+00  2.9992829913E+01
                       0.0000000000E+00  3.8812158402E+00  3.5643129068E+01
                       3.8812158402E+00  3.8812158402E+00  3.2818001722E+01
                       0.0000000000E+00  0.0000000000E+00  3.2818001722E+01
             xred      5.0000000000E-01  0.0000000000E+00  1.9833700000E-01
                       0.0000000000E+00  5.0000000000E-01  3.1520300000E-01
                       5.0000000000E-01  0.0000000000E+00  4.2936900000E-01
                       0.0000000000E+00  5.0000000000E-01  5.4623500000E-01
                       0.0000000000E+00  5.0000000000E-01  1.9968700000E-01
                       5.0000000000E-01  0.0000000000E+00  3.1385300000E-01
                       0.0000000000E+00  5.0000000000E-01  4.3071900000E-01
                       5.0000000000E-01  0.0000000000E+00  5.4488500000E-01
                       5.0000000000E-01  0.0000000000E+00  6.7458000000E-01
                       0.0000000000E+00  5.0000000000E-01  8.0166300000E-01
                       5.0000000000E-01  5.0000000000E-01  7.3812200000E-01
                       0.0000000000E+00  0.0000000000E+00  7.3812200000E-01
            znucl       50.00000   34.00000   30.00000

================================================================================
  

================================================================================

 Suggested references for the acknowledgment of ABINIT usage.

 The users of ABINIT have little formal obligations with respect to the ABINIT group
 (those specified in the GNU General Public License, http://www.gnu.org/copyleft/gpl.txt).
 However, it is common practice in the scientific literature,
 to acknowledge the efforts of people that have made the research possible.
 In this spirit, please find below suggested citations of work written by ABINIT developers,
 corresponding to implementations inside of ABINIT that you have used in the present run.
 Note also that it will be of great value to readers of publications presenting these results,
 to read papers enabling them to understand the theoretical formalism and details
 of the ABINIT implementation.
 For information on why they are suggested, see also https://docs.abinit.org/theory/acknowledgments.
-
- [1] The Abinit project: Impact, environment and recent developments.
- Computer Phys. Comm. 248, 107042 (2020).
- X.Gonze, B. Amadon, G. Antonius, F.Arnardi, L.Baguet, J.-M.Beuken,
- J.Bieder, F.Bottin, J.Bouchet, E.Bousquet, N.Brouwer, F.Bruneval,
- G.Brunin, T.Cavignac, J.-B. Charraud, Wei Chen, M.Cote, S.Cottenier,
- J.Denier, G.Geneste, Ph.Ghosez, M.Giantomassi, Y.Gillet, O.Gingras,
- D.R.Hamann, G.Hautier, Xu He, N.Helbig, N.Holzwarth, Y.Jia, F.Jollet,
- W.Lafargue-Dit-Hauret, K.Lejaeghere, M.A.L.Marques, A.Martin, C.Martins,
- H.P.C. Miranda, F.Naccarato, K. Persson, G.Petretto, V.Planes, Y.Pouillon,
- S.Prokhorenko, F.Ricci, G.-M.Rignanese, A.H.Romero, M.M.Schmitt, M.Torrent,
- M.J.van Setten, B.Van Troeye, M.J.Verstraete, G.Zerah and J.W.Zwanzig
- Comment: the fifth generic paper describing the ABINIT project.
- Note that a version of this paper, that is not formatted for Computer Phys. Comm. 
- is available at https://www.abinit.org/sites/default/files/ABINIT20.pdf .
- The licence allows the authors to put it on the Web.
- DOI and bibtex: see https://docs.abinit.org/theory/bibliography/#gonze2020
-
- [2] Optimized norm-conserving Vanderbilt pseudopotentials.
- D.R. Hamann, Phys. Rev. B 88, 085117 (2013).
- Comment: Some pseudopotential generated using the ONCVPSP code were used.
- DOI and bibtex: see https://docs.abinit.org/theory/bibliography/#hamann2013
-
- [3] ABINIT: Overview, and focus on selected capabilities
- J. Chem. Phys. 152, 124102 (2020).
- A. Romero, D.C. Allan, B. Amadon, G. Antonius, T. Applencourt, L.Baguet,
- J.Bieder, F.Bottin, J.Bouchet, E.Bousquet, F.Bruneval,
- G.Brunin, D.Caliste, M.Cote,
- J.Denier, C. Dreyer, Ph.Ghosez, M.Giantomassi, Y.Gillet, O.Gingras,
- D.R.Hamann, G.Hautier, F.Jollet, G. Jomard,
- A.Martin, 
- H.P.C. Miranda, F.Naccarato, G.Petretto, N.A. Pike, V.Planes,
- S.Prokhorenko, T. Rangel, F.Ricci, G.-M.Rignanese, M.Royo, M.Stengel, M.Torrent,
- M.J.van Setten, B.Van Troeye, M.J.Verstraete, J.Wiktor, J.W.Zwanziger, and X.Gonze.
- Comment: a global overview of ABINIT, with focus on selected capabilities .
- Note that a version of this paper, that is not formatted for J. Chem. Phys 
- is available at https://www.abinit.org/sites/default/files/ABINIT20_JPC.pdf .
- The licence allows the authors to put it on the Web.
- DOI and bibtex: see https://docs.abinit.org/theory/bibliography/#romero2020
-
- [4] Recent developments in the ABINIT software package.
- Computer Phys. Comm. 205, 106 (2016).
- X.Gonze, F.Jollet, F.Abreu Araujo, D.Adams, B.Amadon, T.Applencourt,
- C.Audouze, J.-M.Beuken, J.Bieder, A.Bokhanchuk, E.Bousquet, F.Bruneval
- D.Caliste, M.Cote, F.Dahm, F.Da Pieve, M.Delaveau, M.Di Gennaro,
- B.Dorado, C.Espejo, G.Geneste, L.Genovese, A.Gerossier, M.Giantomassi,
- Y.Gillet, D.R.Hamann, L.He, G.Jomard, J.Laflamme Janssen, S.Le Roux,
- A.Levitt, A.Lherbier, F.Liu, I.Lukacevic, A.Martin, C.Martins,
- M.J.T.Oliveira, S.Ponce, Y.Pouillon, T.Rangel, G.-M.Rignanese,
- A.H.Romero, B.Rousseau, O.Rubel, A.A.Shukri, M.Stankovski, M.Torrent,
- M.J.Van Setten, B.Van Troeye, M.J.Verstraete, D.Waroquier, J.Wiktor,
- B.Xu, A.Zhou, J.W.Zwanziger.
- Comment: the fourth generic paper describing the ABINIT project.
- Note that a version of this paper, that is not formatted for Computer Phys. Comm. 
- is available at https://www.abinit.org/sites/default/files/ABINIT16.pdf .
- The licence allows the authors to put it on the Web.
- DOI and bibtex: see https://docs.abinit.org/theory/bibliography/#gonze2016
-
- And optionally:
-
- [5] ABINIT: First-principles approach of materials and nanosystem properties.
- Computer Phys. Comm. 180, 2582-2615 (2009).
- X. Gonze, B. Amadon, P.-M. Anglade, J.-M. Beuken, F. Bottin, P. Boulanger, F. Bruneval,
- D. Caliste, R. Caracas, M. Cote, T. Deutsch, L. Genovese, Ph. Ghosez, M. Giantomassi
- S. Goedecker, D.R. Hamann, P. Hermet, F. Jollet, G. Jomard, S. Leroux, M. Mancini, S. Mazevet,
- M.J.T. Oliveira, G. Onida, Y. Pouillon, T. Rangel, G.-M. Rignanese, D. Sangalli, R. Shaltaf,
- M. Torrent, M.J. Verstraete, G. Zerah, J.W. Zwanziger
- Comment: the third generic paper describing the ABINIT project.
- Note that a version of this paper, that is not formatted for Computer Phys. Comm. 
- is available at https://www.abinit.org/sites/default/files/ABINIT_CPC_v10.pdf .
- The licence allows the authors to put it on the Web.
- DOI and bibtex: see https://docs.abinit.org/theory/bibliography/#gonze2009
 Proc.   0 individual time (sec): cpu=        588.9  wall=        589.0

 Calculation completed.
.Delivered   0 WARNINGs and   0 COMMENTs to log file.

--- !FinalSummary
program: abinit
version: 9.2.2
start_datetime: Sat Mar 16 21:59:02 2024
end_datetime: Sat Mar 16 22:08:51 2024
overall_cpu_time:        3533.3
overall_wall_time:        3533.7
exit_requested_by_user: no 
timelimit: 0
pseudos: 
    Sn  : c918e999fc214fef37654f9ff7d5f03d
    Se  : f801923bd422df98a30264e8ccc86374
    Zn  : 80c9b4d1484b64588a366a4998a7c40d
usepaw: 0
mpi_procs: 6
omp_threads: 1
num_warnings: 0
num_comments: 0
...
