
.Version 9.2.2 of ABINIT 
.(MPI version, prepared for a x86_64_linux_gnu9.3 computer) 

.Copyright (C) 1998-2020 ABINIT group . 
 ABINIT comes with ABSOLUTELY NO WARRANTY.
 It is free software, and you are welcome to redistribute it
 under certain conditions (GNU General Public License,
 see ~abinit/COPYING or http://www.gnu.org/copyleft/gpl.txt).

 ABINIT is a project of the Universite Catholique de Louvain,
 Corning Inc. and other collaborators, see ~abinit/doc/developers/contributors.txt .
 Please read https://docs.abinit.org/theory/acknowledgments for suggested
 acknowledgments of the ABINIT effort.
 For more information, see https://www.abinit.org .

.Starting date : Sat 16 Mar 2024.
- ( at 16h47 )
  
- The starting date is more than 3 years after the initial release
- of this version of ABINIT, namely Nov 2020.
- This version of ABINIT is not supported anymore.
- Action: please, switch to a more recent version of ABINIT.
- input  file    -> Cs2TiI6.in
- output file    -> Cs2TiI6.out
- root for input  files -> Cs2TiI6i
- root for output files -> Cs2TiI6o


 DATASET    1 : space group P4 m m (# 99); Bravais tP (primitive tetrag.)
================================================================================
 Values of the parameters that define the memory need for DATASET  1.
     intxc =       0    ionmov =       0      iscf =       7    lmnmax =       6
     lnmax =       6     mgfft =     150  mpssoang =       3    mqgrid =    7399
     natom =       8  nloc_mem =       1    nspden =       1   nspinor =       1
    nsppol =       1      nsym =       8    n1xccc =    2501    ntypat =       3
    occopt =       1   xclevel =       2
-    mband =          67        mffmem =           1         mkmem =           3
       mpw =       10680          nfft =      194400          nkpt =          15
================================================================================
P This job should need less than                      98.816 Mbytes of memory.
  Rough estimation (10% accuracy) of disk space for files :
_ WF disk file :    163.781 Mbytes ; DEN or POT disk file :      1.485 Mbytes.
================================================================================


 DATASET    2 : space group P4 m m (# 99); Bravais tP (primitive tetrag.)
================================================================================
 Values of the parameters that define the memory need for DATASET  2.
     intxc =       0    ionmov =       0      iscf =      -2    lmnmax =       6
     lnmax =       6     mgfft =     150  mpssoang =       3    mqgrid =    7399
     natom =       8  nloc_mem =       1    nspden =       1   nspinor =       1
    nsppol =       1      nsym =       8    n1xccc =    2501    ntypat =       3
    occopt =       1   xclevel =       2
-    mband =         150        mffmem =           1         mkmem =           3
       mpw =       10680          nfft =      194400          nkpt =          15
================================================================================
P This job should need less than                     114.209 Mbytes of memory.
  Rough estimation (10% accuracy) of disk space for files :
_ WF disk file :    366.671 Mbytes ; DEN or POT disk file :      1.485 Mbytes.
================================================================================


 DATASET    3 : space group P4 m m (# 99); Bravais tP (primitive tetrag.)
================================================================================
 Values of the parameters that define the memory need for DATASET  3.
     intxc =       0    ionmov =       0      iscf =      -2    lmnmax =       6
     lnmax =       6     mgfft =     150  mpssoang =       3    mqgrid =    7399
     natom =       8  nloc_mem =       1    nspden =       1   nspinor =       1
    nsppol =       1      nsym =       8    n1xccc =    2501    ntypat =       3
    occopt =       1   xclevel =       2
-    mband =         150        mffmem =           1         mkmem =          17
       mpw =       10680          nfft =      194400          nkpt =         100
================================================================================
P This job should need less than                     460.682 Mbytes of memory.
  Rough estimation (10% accuracy) of disk space for files :
_ WF disk file :   2444.460 Mbytes ; DEN or POT disk file :      1.485 Mbytes.
================================================================================


 DATASET    4 : space group P4 m m (# 99); Bravais tP (primitive tetrag.)
================================================================================
 Values of the parameters that define the memory need for DATASET  4 (RF).
     intxc =       0      iscf =      -3    lmnmax =       6     lnmax =       6
     mgfft =     150  mpssoang =       3    mqgrid =    7399     natom =       8
  nloc_mem =       1    nspden =       1   nspinor =       1    nsppol =       1
      nsym =       8    n1xccc =    2501    ntypat =       3    occopt =       1
   xclevel =       2
-    mband =         150        mffmem =           1         mkmem =          17
-   mkqmem =          17        mk1mem =          17           mpw =       10680
      nfft =      194400          nkpt =         100
================================================================================
P This job should need less than                    1335.411 Mbytes of memory.
  Rough estimation (10% accuracy) of disk space for files :
_ WF disk file :  -1651.540 Mbytes ; DEN or POT disk file :      1.485 Mbytes.
================================================================================


 DATASET    5 : space group P4 m m (# 99); Bravais tP (primitive tetrag.)
================================================================================
 Values of the parameters that define the memory need for DATASET  5 (RF).
     intxc =       0      iscf =      -3    lmnmax =       6     lnmax =       6
     mgfft =     150  mpssoang =       3    mqgrid =    7399     natom =       8
  nloc_mem =       1    nspden =       1   nspinor =       1    nsppol =       1
      nsym =       8    n1xccc =    2501    ntypat =       3    occopt =       1
   xclevel =       2
-    mband =         150        mffmem =           1         mkmem =          17
-   mkqmem =          17        mk1mem =          17           mpw =       10680
      nfft =      194400          nkpt =         100
================================================================================
P This job should need less than                    1335.411 Mbytes of memory.
  Rough estimation (10% accuracy) of disk space for files :
_ WF disk file :  -1651.540 Mbytes ; DEN or POT disk file :      1.485 Mbytes.
================================================================================


 DATASET    6 : space group P4 m m (# 99); Bravais tP (primitive tetrag.)
================================================================================
 Values of the parameters that define the memory need for DATASET  6 (RF).
     intxc =       0      iscf =      -3    lmnmax =       6     lnmax =       6
     mgfft =     150  mpssoang =       3    mqgrid =    7399     natom =       8
  nloc_mem =       1    nspden =       1   nspinor =       1    nsppol =       1
      nsym =       8    n1xccc =    2501    ntypat =       3    occopt =       1
   xclevel =       2
-    mband =         150        mffmem =           1         mkmem =          17
-   mkqmem =          17        mk1mem =          17           mpw =       10680
      nfft =      194400          nkpt =         100
================================================================================
P This job should need less than                    1335.411 Mbytes of memory.
  Rough estimation (10% accuracy) of disk space for files :
_ WF disk file :  -1651.540 Mbytes ; DEN or POT disk file :      1.485 Mbytes.
================================================================================

--------------------------------------------------------------------------------
------------- Echo of variables that govern the present computation ------------
--------------------------------------------------------------------------------
-
- outvars: echo of selected default values                                      
-   iomode0 =  0 , fftalg0 =112 , wfoptalg0 =  0
-
- outvars: echo of global parameters not present in the input file              
-  max_nthreads =    0
-
 -outvars: echo values of preprocessed input variables --------
            acell      7.7624316804E+00  7.7624316804E+00  7.7624316804E+00 Bohr
              amu      1.18710000E+02  7.89600000E+01  6.53900000E+01
           diemac      1.20000000E+01
             ecut      2.25000000E+01 Hartree
-          fftalg         112
           getden1          0
           getden2          1
           getden3          1
           getden4          0
           getden5          0
           getden6          0
           getwfk1          0
           getwfk2          1
           getwfk3          2
           getwfk4          3
           getwfk5          3
           getwfk6          3
             iscf1          7
             iscf2         -2
             iscf3         -2
             iscf4         -3
             iscf5         -3
             iscf6         -3
              ixc          11
           jdtset        1    2    3    4    5    6
              kpt1     5.00000000E-02  5.00000000E-02  2.50000000E-01
                       1.50000000E-01  5.00000000E-02  2.50000000E-01
                       2.50000000E-01  5.00000000E-02  2.50000000E-01
                       3.50000000E-01  5.00000000E-02  2.50000000E-01
                       4.50000000E-01  5.00000000E-02  2.50000000E-01
                       1.50000000E-01  1.50000000E-01  2.50000000E-01
                       2.50000000E-01  1.50000000E-01  2.50000000E-01
                       3.50000000E-01  1.50000000E-01  2.50000000E-01
                       4.50000000E-01  1.50000000E-01  2.50000000E-01
                       2.50000000E-01  2.50000000E-01  2.50000000E-01
                       3.50000000E-01  2.50000000E-01  2.50000000E-01
                       4.50000000E-01  2.50000000E-01  2.50000000E-01
                       3.50000000E-01  3.50000000E-01  2.50000000E-01
                       4.50000000E-01  3.50000000E-01  2.50000000E-01
                       4.50000000E-01  4.50000000E-01  2.50000000E-01
              kpt2     5.00000000E-02  5.00000000E-02  2.50000000E-01
                       1.50000000E-01  5.00000000E-02  2.50000000E-01
                       2.50000000E-01  5.00000000E-02  2.50000000E-01
                       3.50000000E-01  5.00000000E-02  2.50000000E-01
                       4.50000000E-01  5.00000000E-02  2.50000000E-01
                       1.50000000E-01  1.50000000E-01  2.50000000E-01
                       2.50000000E-01  1.50000000E-01  2.50000000E-01
                       3.50000000E-01  1.50000000E-01  2.50000000E-01
                       4.50000000E-01  1.50000000E-01  2.50000000E-01
                       2.50000000E-01  2.50000000E-01  2.50000000E-01
                       3.50000000E-01  2.50000000E-01  2.50000000E-01
                       4.50000000E-01  2.50000000E-01  2.50000000E-01
                       3.50000000E-01  3.50000000E-01  2.50000000E-01
                       4.50000000E-01  3.50000000E-01  2.50000000E-01
                       4.50000000E-01  4.50000000E-01  2.50000000E-01
              kpt3     5.00000000E-02  5.00000000E-02  2.50000000E-01
                       1.50000000E-01  5.00000000E-02  2.50000000E-01
                       2.50000000E-01  5.00000000E-02  2.50000000E-01
                       3.50000000E-01  5.00000000E-02  2.50000000E-01
                       4.50000000E-01  5.00000000E-02  2.50000000E-01
                      -4.50000000E-01  5.00000000E-02  2.50000000E-01
                      -3.50000000E-01  5.00000000E-02  2.50000000E-01
                      -2.50000000E-01  5.00000000E-02  2.50000000E-01
                      -1.50000000E-01  5.00000000E-02  2.50000000E-01
                      -5.00000000E-02  5.00000000E-02  2.50000000E-01
                       5.00000000E-02  1.50000000E-01  2.50000000E-01
                       1.50000000E-01  1.50000000E-01  2.50000000E-01
                       2.50000000E-01  1.50000000E-01  2.50000000E-01
                       3.50000000E-01  1.50000000E-01  2.50000000E-01
                       4.50000000E-01  1.50000000E-01  2.50000000E-01
                      -4.50000000E-01  1.50000000E-01  2.50000000E-01
                      -3.50000000E-01  1.50000000E-01  2.50000000E-01
                      -2.50000000E-01  1.50000000E-01  2.50000000E-01
                      -1.50000000E-01  1.50000000E-01  2.50000000E-01
                      -5.00000000E-02  1.50000000E-01  2.50000000E-01
                       5.00000000E-02  2.50000000E-01  2.50000000E-01
                       1.50000000E-01  2.50000000E-01  2.50000000E-01
                       2.50000000E-01  2.50000000E-01  2.50000000E-01
                       3.50000000E-01  2.50000000E-01  2.50000000E-01
                       4.50000000E-01  2.50000000E-01  2.50000000E-01
                      -4.50000000E-01  2.50000000E-01  2.50000000E-01
                      -3.50000000E-01  2.50000000E-01  2.50000000E-01
                      -2.50000000E-01  2.50000000E-01  2.50000000E-01
                      -1.50000000E-01  2.50000000E-01  2.50000000E-01
                      -5.00000000E-02  2.50000000E-01  2.50000000E-01
                       5.00000000E-02  3.50000000E-01  2.50000000E-01
                       1.50000000E-01  3.50000000E-01  2.50000000E-01
                       2.50000000E-01  3.50000000E-01  2.50000000E-01
                       3.50000000E-01  3.50000000E-01  2.50000000E-01
                       4.50000000E-01  3.50000000E-01  2.50000000E-01
                      -4.50000000E-01  3.50000000E-01  2.50000000E-01
                      -3.50000000E-01  3.50000000E-01  2.50000000E-01
                      -2.50000000E-01  3.50000000E-01  2.50000000E-01
                      -1.50000000E-01  3.50000000E-01  2.50000000E-01
                      -5.00000000E-02  3.50000000E-01  2.50000000E-01
                       5.00000000E-02  4.50000000E-01  2.50000000E-01
                       1.50000000E-01  4.50000000E-01  2.50000000E-01
                       2.50000000E-01  4.50000000E-01  2.50000000E-01
                       3.50000000E-01  4.50000000E-01  2.50000000E-01
                       4.50000000E-01  4.50000000E-01  2.50000000E-01
                      -4.50000000E-01  4.50000000E-01  2.50000000E-01
                      -3.50000000E-01  4.50000000E-01  2.50000000E-01
                      -2.50000000E-01  4.50000000E-01  2.50000000E-01
                      -1.50000000E-01  4.50000000E-01  2.50000000E-01
                      -5.00000000E-02  4.50000000E-01  2.50000000E-01
              kpt4     5.00000000E-02  5.00000000E-02  2.50000000E-01
                       1.50000000E-01  5.00000000E-02  2.50000000E-01
                       2.50000000E-01  5.00000000E-02  2.50000000E-01
                       3.50000000E-01  5.00000000E-02  2.50000000E-01
                       4.50000000E-01  5.00000000E-02  2.50000000E-01
                      -4.50000000E-01  5.00000000E-02  2.50000000E-01
                      -3.50000000E-01  5.00000000E-02  2.50000000E-01
                      -2.50000000E-01  5.00000000E-02  2.50000000E-01
                      -1.50000000E-01  5.00000000E-02  2.50000000E-01
                      -5.00000000E-02  5.00000000E-02  2.50000000E-01
                       5.00000000E-02  1.50000000E-01  2.50000000E-01
                       1.50000000E-01  1.50000000E-01  2.50000000E-01
                       2.50000000E-01  1.50000000E-01  2.50000000E-01
                       3.50000000E-01  1.50000000E-01  2.50000000E-01
                       4.50000000E-01  1.50000000E-01  2.50000000E-01
                      -4.50000000E-01  1.50000000E-01  2.50000000E-01
                      -3.50000000E-01  1.50000000E-01  2.50000000E-01
                      -2.50000000E-01  1.50000000E-01  2.50000000E-01
                      -1.50000000E-01  1.50000000E-01  2.50000000E-01
                      -5.00000000E-02  1.50000000E-01  2.50000000E-01
                       5.00000000E-02  2.50000000E-01  2.50000000E-01
                       1.50000000E-01  2.50000000E-01  2.50000000E-01
                       2.50000000E-01  2.50000000E-01  2.50000000E-01
                       3.50000000E-01  2.50000000E-01  2.50000000E-01
                       4.50000000E-01  2.50000000E-01  2.50000000E-01
                      -4.50000000E-01  2.50000000E-01  2.50000000E-01
                      -3.50000000E-01  2.50000000E-01  2.50000000E-01
                      -2.50000000E-01  2.50000000E-01  2.50000000E-01
                      -1.50000000E-01  2.50000000E-01  2.50000000E-01
                      -5.00000000E-02  2.50000000E-01  2.50000000E-01
                       5.00000000E-02  3.50000000E-01  2.50000000E-01
                       1.50000000E-01  3.50000000E-01  2.50000000E-01
                       2.50000000E-01  3.50000000E-01  2.50000000E-01
                       3.50000000E-01  3.50000000E-01  2.50000000E-01
                       4.50000000E-01  3.50000000E-01  2.50000000E-01
                      -4.50000000E-01  3.50000000E-01  2.50000000E-01
                      -3.50000000E-01  3.50000000E-01  2.50000000E-01
                      -2.50000000E-01  3.50000000E-01  2.50000000E-01
                      -1.50000000E-01  3.50000000E-01  2.50000000E-01
                      -5.00000000E-02  3.50000000E-01  2.50000000E-01
                       5.00000000E-02  4.50000000E-01  2.50000000E-01
                       1.50000000E-01  4.50000000E-01  2.50000000E-01
                       2.50000000E-01  4.50000000E-01  2.50000000E-01
                       3.50000000E-01  4.50000000E-01  2.50000000E-01
                       4.50000000E-01  4.50000000E-01  2.50000000E-01
                      -4.50000000E-01  4.50000000E-01  2.50000000E-01
                      -3.50000000E-01  4.50000000E-01  2.50000000E-01
                      -2.50000000E-01  4.50000000E-01  2.50000000E-01
                      -1.50000000E-01  4.50000000E-01  2.50000000E-01
                      -5.00000000E-02  4.50000000E-01  2.50000000E-01
              kpt5     5.00000000E-02  5.00000000E-02  2.50000000E-01
                       1.50000000E-01  5.00000000E-02  2.50000000E-01
                       2.50000000E-01  5.00000000E-02  2.50000000E-01
                       3.50000000E-01  5.00000000E-02  2.50000000E-01
                       4.50000000E-01  5.00000000E-02  2.50000000E-01
                      -4.50000000E-01  5.00000000E-02  2.50000000E-01
                      -3.50000000E-01  5.00000000E-02  2.50000000E-01
                      -2.50000000E-01  5.00000000E-02  2.50000000E-01
                      -1.50000000E-01  5.00000000E-02  2.50000000E-01
                      -5.00000000E-02  5.00000000E-02  2.50000000E-01
                       5.00000000E-02  1.50000000E-01  2.50000000E-01
                       1.50000000E-01  1.50000000E-01  2.50000000E-01
                       2.50000000E-01  1.50000000E-01  2.50000000E-01
                       3.50000000E-01  1.50000000E-01  2.50000000E-01
                       4.50000000E-01  1.50000000E-01  2.50000000E-01
                      -4.50000000E-01  1.50000000E-01  2.50000000E-01
                      -3.50000000E-01  1.50000000E-01  2.50000000E-01
                      -2.50000000E-01  1.50000000E-01  2.50000000E-01
                      -1.50000000E-01  1.50000000E-01  2.50000000E-01
                      -5.00000000E-02  1.50000000E-01  2.50000000E-01
                       5.00000000E-02  2.50000000E-01  2.50000000E-01
                       1.50000000E-01  2.50000000E-01  2.50000000E-01
                       2.50000000E-01  2.50000000E-01  2.50000000E-01
                       3.50000000E-01  2.50000000E-01  2.50000000E-01
                       4.50000000E-01  2.50000000E-01  2.50000000E-01
                      -4.50000000E-01  2.50000000E-01  2.50000000E-01
                      -3.50000000E-01  2.50000000E-01  2.50000000E-01
                      -2.50000000E-01  2.50000000E-01  2.50000000E-01
                      -1.50000000E-01  2.50000000E-01  2.50000000E-01
                      -5.00000000E-02  2.50000000E-01  2.50000000E-01
                       5.00000000E-02  3.50000000E-01  2.50000000E-01
                       1.50000000E-01  3.50000000E-01  2.50000000E-01
                       2.50000000E-01  3.50000000E-01  2.50000000E-01
                       3.50000000E-01  3.50000000E-01  2.50000000E-01
                       4.50000000E-01  3.50000000E-01  2.50000000E-01
                      -4.50000000E-01  3.50000000E-01  2.50000000E-01
                      -3.50000000E-01  3.50000000E-01  2.50000000E-01
                      -2.50000000E-01  3.50000000E-01  2.50000000E-01
                      -1.50000000E-01  3.50000000E-01  2.50000000E-01
                      -5.00000000E-02  3.50000000E-01  2.50000000E-01
                       5.00000000E-02  4.50000000E-01  2.50000000E-01
                       1.50000000E-01  4.50000000E-01  2.50000000E-01
                       2.50000000E-01  4.50000000E-01  2.50000000E-01
                       3.50000000E-01  4.50000000E-01  2.50000000E-01
                       4.50000000E-01  4.50000000E-01  2.50000000E-01
                      -4.50000000E-01  4.50000000E-01  2.50000000E-01
                      -3.50000000E-01  4.50000000E-01  2.50000000E-01
                      -2.50000000E-01  4.50000000E-01  2.50000000E-01
                      -1.50000000E-01  4.50000000E-01  2.50000000E-01
                      -5.00000000E-02  4.50000000E-01  2.50000000E-01
              kpt6     5.00000000E-02  5.00000000E-02  2.50000000E-01
                       1.50000000E-01  5.00000000E-02  2.50000000E-01
                       2.50000000E-01  5.00000000E-02  2.50000000E-01
                       3.50000000E-01  5.00000000E-02  2.50000000E-01
                       4.50000000E-01  5.00000000E-02  2.50000000E-01
                      -4.50000000E-01  5.00000000E-02  2.50000000E-01
                      -3.50000000E-01  5.00000000E-02  2.50000000E-01
                      -2.50000000E-01  5.00000000E-02  2.50000000E-01
                      -1.50000000E-01  5.00000000E-02  2.50000000E-01
                      -5.00000000E-02  5.00000000E-02  2.50000000E-01
                       5.00000000E-02  1.50000000E-01  2.50000000E-01
                       1.50000000E-01  1.50000000E-01  2.50000000E-01
                       2.50000000E-01  1.50000000E-01  2.50000000E-01
                       3.50000000E-01  1.50000000E-01  2.50000000E-01
                       4.50000000E-01  1.50000000E-01  2.50000000E-01
                      -4.50000000E-01  1.50000000E-01  2.50000000E-01
                      -3.50000000E-01  1.50000000E-01  2.50000000E-01
                      -2.50000000E-01  1.50000000E-01  2.50000000E-01
                      -1.50000000E-01  1.50000000E-01  2.50000000E-01
                      -5.00000000E-02  1.50000000E-01  2.50000000E-01
                       5.00000000E-02  2.50000000E-01  2.50000000E-01
                       1.50000000E-01  2.50000000E-01  2.50000000E-01
                       2.50000000E-01  2.50000000E-01  2.50000000E-01
                       3.50000000E-01  2.50000000E-01  2.50000000E-01
                       4.50000000E-01  2.50000000E-01  2.50000000E-01
                      -4.50000000E-01  2.50000000E-01  2.50000000E-01
                      -3.50000000E-01  2.50000000E-01  2.50000000E-01
                      -2.50000000E-01  2.50000000E-01  2.50000000E-01
                      -1.50000000E-01  2.50000000E-01  2.50000000E-01
                      -5.00000000E-02  2.50000000E-01  2.50000000E-01
                       5.00000000E-02  3.50000000E-01  2.50000000E-01
                       1.50000000E-01  3.50000000E-01  2.50000000E-01
                       2.50000000E-01  3.50000000E-01  2.50000000E-01
                       3.50000000E-01  3.50000000E-01  2.50000000E-01
                       4.50000000E-01  3.50000000E-01  2.50000000E-01
                      -4.50000000E-01  3.50000000E-01  2.50000000E-01
                      -3.50000000E-01  3.50000000E-01  2.50000000E-01
                      -2.50000000E-01  3.50000000E-01  2.50000000E-01
                      -1.50000000E-01  3.50000000E-01  2.50000000E-01
                      -5.00000000E-02  3.50000000E-01  2.50000000E-01
                       5.00000000E-02  4.50000000E-01  2.50000000E-01
                       1.50000000E-01  4.50000000E-01  2.50000000E-01
                       2.50000000E-01  4.50000000E-01  2.50000000E-01
                       3.50000000E-01  4.50000000E-01  2.50000000E-01
                       4.50000000E-01  4.50000000E-01  2.50000000E-01
                      -4.50000000E-01  4.50000000E-01  2.50000000E-01
                      -3.50000000E-01  4.50000000E-01  2.50000000E-01
                      -2.50000000E-01  4.50000000E-01  2.50000000E-01
                      -1.50000000E-01  4.50000000E-01  2.50000000E-01
                      -5.00000000E-02  4.50000000E-01  2.50000000E-01
                       outvar_i_n : Printing only first  50 k-points.
           kptopt1          1
           kptopt2          1
           kptopt3          2
           kptopt4          2
           kptopt5          2
           kptopt6          2
         kptrlatt       10    0    0      0   10    0      0    0    2
          kptrlen      7.76243168E+01
P           mkmem1          3
P           mkmem2          3
P           mkmem3         17
P           mkmem4         17
P           mkmem5         17
P           mkmem6         17
P          mkqmem1          3
P          mkqmem2          3
P          mkqmem3         17
P          mkqmem4         17
P          mkqmem5         17
P          mkqmem6         17
P          mk1mem1          3
P          mk1mem2          3
P          mk1mem3         17
P          mk1mem4         17
P          mk1mem5         17
P          mk1mem6         17
            natom           8
            nband1         67
            nband2        150
            nband3        150
            nband4        150
            nband5        150
            nband6        150
           nbdbuf1          0
           nbdbuf2          2
           nbdbuf3          2
           nbdbuf4          2
           nbdbuf5          2
           nbdbuf6          2
           ndtset           6
            ngfft          36      36     150
             nkpt1         15
             nkpt2         15
             nkpt3        100
             nkpt4        100
             nkpt5        100
             nkpt6        100
            nline1          4
            nline2          4
            nline3          4
            nline4          0
            nline5          0
            nline6          0
             nqpt1          0
             nqpt2          0
             nqpt3          0
             nqpt4          1
             nqpt5          1
             nqpt6          1
            nstep1        400
            nstep2        200
            nstep3        200
            nstep4          1
            nstep5          1
            nstep6          1
             nsym           8
           ntypat           3
              occ1     2.000000  2.000000  2.000000  2.000000  2.000000  2.000000
                       2.000000  2.000000  2.000000  2.000000  2.000000  2.000000
                       2.000000  2.000000  2.000000  2.000000  2.000000  2.000000
                       2.000000  2.000000  2.000000  2.000000  2.000000  2.000000
                       2.000000  2.000000  2.000000  2.000000  2.000000  2.000000
                       2.000000  2.000000  2.000000  2.000000  2.000000  2.000000
                       2.000000  2.000000  2.000000  2.000000  2.000000  2.000000
                       2.000000  2.000000  2.000000  2.000000  2.000000  2.000000
                       2.000000  2.000000  2.000000  2.000000  2.000000  2.000000
                       2.000000  2.000000  2.000000  2.000000  2.000000  2.000000
                       2.000000  2.000000  2.000000  2.000000  2.000000  2.000000
                       0.000000
              occ4     2.000000  2.000000  2.000000  2.000000  2.000000  2.000000
                       2.000000  2.000000  2.000000  2.000000  2.000000  2.000000
                       2.000000  2.000000  2.000000  2.000000  2.000000  2.000000
                       2.000000  2.000000  2.000000  2.000000  2.000000  2.000000
                       2.000000  2.000000  2.000000  2.000000  2.000000  2.000000
                       2.000000  2.000000  2.000000  2.000000  2.000000  2.000000
                       2.000000  2.000000  2.000000  2.000000  2.000000  2.000000
                       2.000000  2.000000  2.000000  2.000000  2.000000  2.000000
                       2.000000  2.000000  2.000000  2.000000  2.000000  2.000000
                       2.000000  2.000000  2.000000  2.000000  2.000000  2.000000
                       2.000000  2.000000  2.000000  2.000000  2.000000  2.000000
                       0.000000  0.000000  0.000000  0.000000  0.000000  0.000000
                       0.000000  0.000000  0.000000  0.000000  0.000000  0.000000
                       0.000000  0.000000  0.000000  0.000000  0.000000  0.000000
                       0.000000  0.000000  0.000000  0.000000  0.000000  0.000000
                       0.000000  0.000000  0.000000  0.000000  0.000000  0.000000
                       0.000000  0.000000  0.000000  0.000000  0.000000  0.000000
                       0.000000  0.000000  0.000000  0.000000  0.000000  0.000000
                       0.000000  0.000000  0.000000  0.000000  0.000000  0.000000
                       0.000000  0.000000  0.000000  0.000000  0.000000  0.000000
                       0.000000  0.000000  0.000000  0.000000  0.000000  0.000000
                       0.000000  0.000000  0.000000  0.000000  0.000000  0.000000
                       0.000000  0.000000  0.000000  0.000000  0.000000  0.000000
                       0.000000  0.000000  0.000000  0.000000  0.000000  0.000000
                       0.000000  0.000000  0.000000  0.000000  0.000000  0.000000
              occ5     2.000000  2.000000  2.000000  2.000000  2.000000  2.000000
                       2.000000  2.000000  2.000000  2.000000  2.000000  2.000000
                       2.000000  2.000000  2.000000  2.000000  2.000000  2.000000
                       2.000000  2.000000  2.000000  2.000000  2.000000  2.000000
                       2.000000  2.000000  2.000000  2.000000  2.000000  2.000000
                       2.000000  2.000000  2.000000  2.000000  2.000000  2.000000
                       2.000000  2.000000  2.000000  2.000000  2.000000  2.000000
                       2.000000  2.000000  2.000000  2.000000  2.000000  2.000000
                       2.000000  2.000000  2.000000  2.000000  2.000000  2.000000
                       2.000000  2.000000  2.000000  2.000000  2.000000  2.000000
                       2.000000  2.000000  2.000000  2.000000  2.000000  2.000000
                       0.000000  0.000000  0.000000  0.000000  0.000000  0.000000
                       0.000000  0.000000  0.000000  0.000000  0.000000  0.000000
                       0.000000  0.000000  0.000000  0.000000  0.000000  0.000000
                       0.000000  0.000000  0.000000  0.000000  0.000000  0.000000
                       0.000000  0.000000  0.000000  0.000000  0.000000  0.000000
                       0.000000  0.000000  0.000000  0.000000  0.000000  0.000000
                       0.000000  0.000000  0.000000  0.000000  0.000000  0.000000
                       0.000000  0.000000  0.000000  0.000000  0.000000  0.000000
                       0.000000  0.000000  0.000000  0.000000  0.000000  0.000000
                       0.000000  0.000000  0.000000  0.000000  0.000000  0.000000
                       0.000000  0.000000  0.000000  0.000000  0.000000  0.000000
                       0.000000  0.000000  0.000000  0.000000  0.000000  0.000000
                       0.000000  0.000000  0.000000  0.000000  0.000000  0.000000
                       0.000000  0.000000  0.000000  0.000000  0.000000  0.000000
              occ6     2.000000  2.000000  2.000000  2.000000  2.000000  2.000000
                       2.000000  2.000000  2.000000  2.000000  2.000000  2.000000
                       2.000000  2.000000  2.000000  2.000000  2.000000  2.000000
                       2.000000  2.000000  2.000000  2.000000  2.000000  2.000000
                       2.000000  2.000000  2.000000  2.000000  2.000000  2.000000
                       2.000000  2.000000  2.000000  2.000000  2.000000  2.000000
                       2.000000  2.000000  2.000000  2.000000  2.000000  2.000000
                       2.000000  2.000000  2.000000  2.000000  2.000000  2.000000
                       2.000000  2.000000  2.000000  2.000000  2.000000  2.000000
                       2.000000  2.000000  2.000000  2.000000  2.000000  2.000000
                       2.000000  2.000000  2.000000  2.000000  2.000000  2.000000
                       0.000000  0.000000  0.000000  0.000000  0.000000  0.000000
                       0.000000  0.000000  0.000000  0.000000  0.000000  0.000000
                       0.000000  0.000000  0.000000  0.000000  0.000000  0.000000
                       0.000000  0.000000  0.000000  0.000000  0.000000  0.000000
                       0.000000  0.000000  0.000000  0.000000  0.000000  0.000000
                       0.000000  0.000000  0.000000  0.000000  0.000000  0.000000
                       0.000000  0.000000  0.000000  0.000000  0.000000  0.000000
                       0.000000  0.000000  0.000000  0.000000  0.000000  0.000000
                       0.000000  0.000000  0.000000  0.000000  0.000000  0.000000
                       0.000000  0.000000  0.000000  0.000000  0.000000  0.000000
                       0.000000  0.000000  0.000000  0.000000  0.000000  0.000000
                       0.000000  0.000000  0.000000  0.000000  0.000000  0.000000
                       0.000000  0.000000  0.000000  0.000000  0.000000  0.000000
                       0.000000  0.000000  0.000000  0.000000  0.000000  0.000000
        optdriver1          0
        optdriver2          0
        optdriver3          0
        optdriver4          1
        optdriver5          1
        optdriver6          1
            prtwf1          1
            prtwf2          1
            prtwf3          1
            prtwf4          3
            prtwf5          3
            prtwf6          3
            rfdir1          0       0       0
            rfdir2          0       0       0
            rfdir3          0       0       0
            rfdir4          1       0       0
            rfdir5          0       1       0
            rfdir6          0       0       1
           rfelfd1          0
           rfelfd2          0
           rfelfd3          0
           rfelfd4          2
           rfelfd5          2
           rfelfd6          2
            rprim      1.0000000000E+00  0.0000000000E+00  0.0000000000E+00
                       0.0000000000E+00  1.0000000000E+00  0.0000000000E+00
                       0.0000000000E+00  0.0000000000E+00  4.4638771264E+00
           shiftk      5.00000000E-01  5.00000000E-01  5.00000000E-01
          spgroup          99
           symrel      1  0  0   0  1  0   0  0  1       1  0  0   0 -1  0   0  0  1
                      -1  0  0   0 -1  0   0  0  1      -1  0  0   0  1  0   0  0  1
                       0  1  0   1  0  0   0  0  1       0  1  0  -1  0  0   0  0  1
                       0 -1  0  -1  0  0   0  0  1       0 -1  0   1  0  0   0  0  1
            tnons      0.0000000  0.0000000  0.0000000     0.0000000  0.0000000  0.0000000
                       0.0000000  0.0000000  0.0000000     0.0000000  0.0000000  0.0000000
                       0.5000000  0.5000000  0.0000000     0.5000000  0.5000000  0.0000000
                       0.5000000  0.5000000  0.0000000     0.5000000  0.5000000  0.0000000
           tolwfr      1.00000000E-20
            typat      1  1  2  2  2  2  3  3
           vdw_xc           5
              wtk1       0.04000    0.08000    0.08000    0.08000    0.08000    0.04000
                         0.08000    0.08000    0.08000    0.04000    0.08000    0.08000
                         0.04000    0.08000    0.04000
              wtk2       0.04000    0.08000    0.08000    0.08000    0.08000    0.04000
                         0.08000    0.08000    0.08000    0.04000    0.08000    0.08000
                         0.04000    0.08000    0.04000
              wtk3       0.01000    0.01000    0.01000    0.01000    0.01000    0.01000
                         0.01000    0.01000    0.01000    0.01000    0.01000    0.01000
                         0.01000    0.01000    0.01000    0.01000    0.01000    0.01000
                         0.01000    0.01000    0.01000    0.01000    0.01000    0.01000
                         0.01000    0.01000    0.01000    0.01000    0.01000    0.01000
                         0.01000    0.01000    0.01000    0.01000    0.01000    0.01000
                         0.01000    0.01000    0.01000    0.01000    0.01000    0.01000
                         0.01000    0.01000    0.01000    0.01000    0.01000    0.01000
                         0.01000    0.01000
              wtk4       0.01000    0.01000    0.01000    0.01000    0.01000    0.01000
                         0.01000    0.01000    0.01000    0.01000    0.01000    0.01000
                         0.01000    0.01000    0.01000    0.01000    0.01000    0.01000
                         0.01000    0.01000    0.01000    0.01000    0.01000    0.01000
                         0.01000    0.01000    0.01000    0.01000    0.01000    0.01000
                         0.01000    0.01000    0.01000    0.01000    0.01000    0.01000
                         0.01000    0.01000    0.01000    0.01000    0.01000    0.01000
                         0.01000    0.01000    0.01000    0.01000    0.01000    0.01000
                         0.01000    0.01000
              wtk5       0.01000    0.01000    0.01000    0.01000    0.01000    0.01000
                         0.01000    0.01000    0.01000    0.01000    0.01000    0.01000
                         0.01000    0.01000    0.01000    0.01000    0.01000    0.01000
                         0.01000    0.01000    0.01000    0.01000    0.01000    0.01000
                         0.01000    0.01000    0.01000    0.01000    0.01000    0.01000
                         0.01000    0.01000    0.01000    0.01000    0.01000    0.01000
                         0.01000    0.01000    0.01000    0.01000    0.01000    0.01000
                         0.01000    0.01000    0.01000    0.01000    0.01000    0.01000
                         0.01000    0.01000
              wtk6       0.01000    0.01000    0.01000    0.01000    0.01000    0.01000
                         0.01000    0.01000    0.01000    0.01000    0.01000    0.01000
                         0.01000    0.01000    0.01000    0.01000    0.01000    0.01000
                         0.01000    0.01000    0.01000    0.01000    0.01000    0.01000
                         0.01000    0.01000    0.01000    0.01000    0.01000    0.01000
                         0.01000    0.01000    0.01000    0.01000    0.01000    0.01000
                         0.01000    0.01000    0.01000    0.01000    0.01000    0.01000
                         0.01000    0.01000    0.01000    0.01000    0.01000    0.01000
                         0.01000    0.01000
                       outvars : Printing only first  50 k-points.
           xangst      2.0538509643E+00  0.0000000000E+00  4.6664723976E+00
                       0.0000000000E+00  2.0538509643E+00  7.4160887673E+00
                       2.0538509643E+00  0.0000000000E+00  7.3843303361E+00
                       0.0000000000E+00  2.0538509643E+00  4.6982308288E+00
                       2.0538509643E+00  0.0000000000E+00  1.0679799326E+01
                       0.0000000000E+00  2.0538509643E+00  1.3669804283E+01
                       2.0538509643E+00  2.0538509643E+00  1.2174810973E+01
                       0.0000000000E+00  0.0000000000E+00  1.2174810973E+01
            xcart      3.8812158402E+00  0.0000000000E+00  8.8183548382E+00
                       0.0000000000E+00  3.8812158402E+00  1.4014376747E+01
                       3.8812158402E+00  0.0000000000E+00  1.3954362010E+01
                       0.0000000000E+00  3.8812158402E+00  8.8783695756E+00
                       3.8812158402E+00  0.0000000000E+00  2.0181895881E+01
                       0.0000000000E+00  3.8812158402E+00  2.5832186386E+01
                       3.8812158402E+00  3.8812158402E+00  2.3007058458E+01
                       0.0000000000E+00  0.0000000000E+00  2.3007058458E+01
             xred      5.0000000000E-01  0.0000000000E+00  2.5449400000E-01
                       0.0000000000E+00  5.0000000000E-01  4.0444900000E-01
                       5.0000000000E-01  0.0000000000E+00  4.0271700000E-01
                       0.0000000000E+00  5.0000000000E-01  2.5622600000E-01
                       5.0000000000E-01  0.0000000000E+00  5.8244100000E-01
                       0.0000000000E+00  5.0000000000E-01  7.4550600000E-01
                       5.0000000000E-01  5.0000000000E-01  6.6397400000E-01
                       0.0000000000E+00  0.0000000000E+00  6.6397400000E-01
            znucl       50.00000   34.00000   30.00000

================================================================================

 chkinp: Checking input parameters for consistency, jdtset=   1.

 chkinp: Checking input parameters for consistency, jdtset=   2.

 chkinp: Checking input parameters for consistency, jdtset=   3.

 chkinp: Checking input parameters for consistency, jdtset=   4.

 chkinp: Checking input parameters for consistency, jdtset=   5.

 chkinp: Checking input parameters for consistency, jdtset=   6.

================================================================================
== DATASET  1 ==================================================================
-   mpi_nproc: 6, omp_nthreads: -1 (-1 if OMP is not activated)


--- !DatasetInfo
iteration_state: {dtset: 1, }
dimensions: {natom: 8, nkpt: 15, mband: 67, nsppol: 1, nspinor: 1, nspden: 1, mpw: 10680, }
cutoff_energies: {ecut:  22.5, pawecutdg:  -1.0, }
electrons: {nelect:   1.32000000E+02, charge:   0.00000000E+00, occopt:   1.00000000E+00, tsmear:   1.00000000E-02, }
meta: {optdriver: 0, ionmov: 0, optcell: 0, iscf: 7, paral_kgb: 0, }
...

 Exchange-correlation functional for the present dataset will be:
  GGA: Perdew-Burke-Ernzerhof functional - ixc=11
 Citation for XC functional:
  J.P.Perdew, K.Burke, M.Ernzerhof, PRL 77, 3865 (1996)

 Real(R)+Recip(G) space primitive vectors, cartesian coordinates (Bohr,Bohr^-1):
 R(1)=  7.7624317  0.0000000  0.0000000  G(1)=  0.1288256  0.0000000  0.0000000
 R(2)=  0.0000000  7.7624317  0.0000000  G(2)=  0.0000000  0.1288256  0.0000000
 R(3)=  0.0000000  0.0000000 34.6505412  G(3)=  0.0000000  0.0000000  0.0288596
 Unit cell volume ucvol=  2.0878803E+03 bohr^3
 Angles (23,13,12)=  9.00000000E+01  9.00000000E+01  9.00000000E+01 degrees

 getcut: wavevector=  0.0000  0.0000  0.0000  ngfft=  36  36 150
         ecut(hartree)=     22.500   => boxcut(ratio)=   2.02733

--- Pseudopotential description ------------------------------------------------
- pspini: atom type   1  psp file is ../../../Psps_for_tests/ATOMICDATA_NC/Sn.psp8
- pspatm: opening atomic psp file    ../../../Psps_for_tests/ATOMICDATA_NC/Sn.psp8
- Sn    ONCVPSP  r_core=  2.27  2.62  1.86
- 50.00000  14.00000    150810                znucl, zion, pspdat
    8   11    2    4       600   0.00000      pspcod,pspxc,lmax,lloc,mmax,r2well
    5.99000000000000    6.50000000000000    0.00000000000000   rchrg,fchrg,qchrg
     nproj     2     2     2
     extension_switch     1
  pspatm : epsatm=   32.65190642
         --- l  ekb(1:nproj) -->
             0    5.462393    0.682281
             1    4.443814    0.825686
             2   -5.382195   -1.704077
 pspatm: atomic psp has been read  and splines computed

- pspini: atom type   2  psp file is ../../../Psps_for_tests/ATOMICDATA_NC/Se.psp8
- pspatm: opening atomic psp file    ../../../Psps_for_tests/ATOMICDATA_NC/Se.psp8
- Se    ONCVPSP  r_core=  1.82  1.50  1.91
- 34.00000  16.00000    150729                znucl, zion, pspdat
    8   11    2    4       600   0.00000      pspcod,pspxc,lmax,lloc,mmax,r2well
    5.99000000000000    5.00000000000000    0.00000000000000   rchrg,fchrg,qchrg
     nproj     2     2     2
     extension_switch     1
  pspatm : epsatm=   29.53325930
         --- l  ekb(1:nproj) -->
             0    8.612261    0.939919
             1    6.984962    1.281898
             2   -9.322521   -3.856218
 pspatm: atomic psp has been read  and splines computed

- pspini: atom type   3  psp file is ../../../Psps_for_tests/ATOMICDATA_NC/Zn.psp8
- pspatm: opening atomic psp file    ../../../Psps_for_tests/ATOMICDATA_NC/Zn.psp8
- Zn    ONCVPSP  r_core=  1.36  1.66  1.85
- 30.00000  20.00000    161102                znucl, zion, pspdat
    8   11    2    4       600   0.00000      pspcod,pspxc,lmax,lloc,mmax,r2well
    5.99000000000000    2.50000000000000    0.00000000000000   rchrg,fchrg,qchrg
     nproj     2     2     2
     extension_switch     1
  pspatm : epsatm=   26.67245340
         --- l  ekb(1:nproj) -->
             0    2.404235   -1.533451
             1   -4.677427   -1.530630
             2   -7.000316   -2.622858
 pspatm: atomic psp has been read  and splines computed

   3.12551919E+04                                ecore*ucvol(ha*bohr**3)
--------------------------------------------------------------------------------

_setup2: Arith. and geom. avg. npw (full set) are   10643.160   10643.152

================================================================================

--- !BeginCycle
iteration_state: {dtset: 1, }
solver: {iscf: 7, nstep: 400, nline: 4, wfoptalg: 0, }
tolerances: {tolwfr: 1.00E-20, }
...

     iter   Etot(hartree)      deltaE(h)  residm     vres2
 ETOT  1  -929.86833605642    -9.299E+02 8.920E-01 4.217E+06
 ETOT  2  -157.81125922047     7.721E+02 6.893E-01 5.330E+07
 ETOT  3  -910.27744606839    -7.525E+02 2.909E+00 7.088E+06
 ETOT  4  -1046.9945132534    -1.367E+02 8.449E-01 1.476E+05
 ETOT  5  -1053.1974168226    -6.203E+00 5.583E-02 2.091E+04
 ETOT  6  -1053.4180474789    -2.206E-01 2.792E-02 3.854E+04
 ETOT  7  -1052.3553666286     1.063E+00 6.710E-03 1.460E+05
 ETOT  8  -1052.6540268891    -2.987E-01 2.873E-03 1.330E+05
 ETOT  9  -1053.4684148469    -8.144E-01 6.507E-04 8.618E+04
 ETOT 10  -1054.9974764403    -1.529E+00 1.317E-02 2.265E+03
 ETOT 11  -1054.9231631796     7.431E-02 4.233E-04 8.587E+03
 ETOT 12  -1055.0519015838    -1.287E-01 5.763E-03 2.530E+02
 ETOT 13  -1055.0557681580    -3.867E-03 2.477E-03 4.476E+02
 ETOT 14  -1055.0584825299    -2.714E-03 8.538E-04 2.306E+02
 ETOT 15  -1055.0595051214    -1.023E-03 6.556E-04 1.050E+02
 ETOT 16  -1055.0598774604    -3.723E-04 1.426E-03 5.207E+01
 ETOT 17  -1055.0600196639    -1.422E-04 1.080E-02 2.076E+01
 ETOT 18  -1055.0600990362    -7.937E-05 4.828E-04 1.319E+01
 ETOT 19  -1055.0601397016    -4.067E-05 7.434E-04 3.686E+00
 ETOT 20  -1055.0601832563    -4.355E-05 7.872E-05 5.314E-01
 ETOT 21  -1055.0601857422    -2.486E-06 3.782E-05 4.286E-01
 ETOT 22  -1055.0601887765    -3.034E-06 2.044E-05 4.590E-02
 ETOT 23  -1055.0601890836    -3.071E-07 1.122E-05 2.375E-02
 ETOT 24  -1055.0601892777    -1.942E-07 6.735E-06 2.707E-03
 ETOT 25  -1055.0601892946    -1.687E-08 3.969E-06 1.444E-03
 ETOT 26  -1055.0601893035    -8.905E-09 2.011E-06 2.029E-04
 ETOT 27  -1055.0601893084    -4.935E-09 1.709E-06 1.680E-05
 ETOT 28  -1055.0601893085    -1.139E-10 5.288E-07 6.364E-06
 ETOT 29  -1055.0601893087    -1.801E-10 7.541E-07 5.649E-07
 ETOT 30  -1055.0601893087     2.910E-11 2.500E-07 5.393E-08
 ETOT 31  -1055.0601893086     6.276E-11 3.428E-07 1.702E-08
 ETOT 32  -1055.0601893087    -6.048E-11 1.266E-07 3.096E-09
 ETOT 33  -1055.0601893088    -1.355E-10 1.588E-07 4.480E-09
 ETOT 34  -1055.0601893087     9.732E-11 6.427E-08 2.461E-09
 ETOT 35  -1055.0601893087     6.617E-11 7.721E-08 1.703E-09
 ETOT 36  -1055.0601893086     1.751E-11 9.200E-08 1.920E-10
 ETOT 37  -1055.0601893088    -1.264E-10 1.120E-07 7.278E-11
 ETOT 38  -1055.0601893088     7.276E-12 1.339E-07 1.086E-12
 ETOT 39  -1055.0601893088    -4.320E-12 1.622E-07 1.285E-12
 ETOT 40  -1055.0601893086     1.337E-10 1.942E-07 1.630E-13
 ETOT 41  -1055.0601893088    -1.899E-10 2.344E-07 2.877E-14
 ETOT 42  -1055.0601893088    -1.137E-11 2.810E-07 1.260E-14
 ETOT 43  -1055.0601893088     3.638E-11 3.381E-07 4.206E-15
 ETOT 44  -1055.0601893088    -2.024E-11 4.056E-07 2.115E-15
 ETOT 45  -1055.0601893088     2.024E-11 4.870E-07 1.474E-15
 ETOT 46  -1055.0601893087     5.844E-11 5.844E-07 9.948E-16
 ETOT 47  -1055.0601893088    -1.705E-11 7.006E-07 7.569E-16
 ETOT 48  -1055.0601893088    -8.185E-12 8.408E-07 6.407E-16
 ETOT 49  -1055.0601893088     1.819E-12 1.007E-06 5.008E-16
 ETOT 50  -1055.0601893088    -2.410E-11 1.208E-06 3.498E-16
 ETOT 51  -1055.0601893088     1.683E-11 1.445E-06 2.067E-16
 ETOT 52  -1055.0601893088    -1.910E-11 1.732E-06 1.234E-16
 ETOT 53  -1055.0601893088    -3.411E-12 2.071E-06 8.778E-17
 ETOT 54  -1055.0601893088    -2.274E-13 2.481E-06 9.435E-17
 ETOT 55  -1055.0601893088     4.093E-12 2.966E-06 8.045E-17
 ETOT 56  -1055.0601893088     2.501E-12 3.547E-06 6.001E-17
 ETOT 57  -1055.0601893088    -8.185E-12 4.240E-06 5.055E-17
 ETOT 58  -1055.0601893088    -2.501E-12 5.060E-06 4.339E-17
 ETOT 59  -1055.0601893088     1.364E-12 6.050E-06 4.692E-17
 ETOT 60  -1055.0601893088    -1.364E-12 7.200E-06 4.657E-17
 ETOT 61  -1055.0601893088    -6.821E-12 8.607E-06 4.202E-17
 ETOT 62  -1055.0601893088    -4.093E-12 1.021E-05 3.950E-17
 ETOT 63  -1055.0601893088    -1.455E-11 1.220E-05 3.521E-17
 ETOT 64  -1055.0601893088     1.137E-12 1.440E-05 3.185E-17
 ETOT 65  -1055.0601893088    -2.274E-13 1.721E-05 2.991E-17
 ETOT 66  -1055.0601893088     4.547E-13 2.019E-05 2.791E-17
 ETOT 67  -1055.0601893088     1.364E-12 2.409E-05 2.623E-17
 ETOT 68  -1055.0601893088     4.093E-12 2.805E-05 2.484E-17
 ETOT 69  -1055.0601893088    -3.865E-12 3.339E-05 2.392E-17
 ETOT 70  -1055.0601893088    -5.230E-12 3.852E-05 2.141E-17
 ETOT 71  -1055.0601893088    -5.684E-12 4.565E-05 2.044E-17
 ETOT 72  -1055.0601893088     1.137E-12 5.207E-05 1.845E-17
 ETOT 73  -1055.0601893088    -2.956E-12 6.127E-05 1.870E-17
 ETOT 74  -1055.0601893088    -7.731E-12 6.899E-05 1.677E-17
 ETOT 75  -1055.0601893088    -2.046E-12 8.021E-05 1.534E-17
 ETOT 76  -1055.0601893088    -2.274E-12 8.906E-05 1.463E-17
 ETOT 77  -1055.0601893088     2.728E-12 1.014E-04 1.339E-17
 ETOT 78  -1055.0601893088     6.821E-12 1.109E-04 1.251E-17
 ETOT 79  -1055.0601893088     1.501E-11 1.214E-04 1.207E-17
 ETOT 80  -1055.0601893088    -1.614E-11 1.301E-04 1.106E-17
 ETOT 81  -1055.0601893088    -1.592E-12 1.334E-04 1.050E-17
 ETOT 82  -1055.0601893088     8.640E-12 1.380E-04 1.032E-17
 ETOT 83  -1055.0601893088     7.049E-12 1.288E-04 9.876E-18
 ETOT 84  -1055.0601893088    -5.230E-12 1.269E-04 8.990E-18
 ETOT 85  -1055.0601893088    -6.139E-12 1.068E-04 9.657E-18
 ETOT 86  -1055.0601893088     1.342E-11 9.998E-05 8.167E-18
 ETOT 87  -1055.0601893088     4.320E-12 7.674E-05 8.427E-18
 ETOT 88  -1055.0601893088    -1.091E-11 6.918E-05 8.855E-18
 ETOT 89  -1055.0601893088    -5.230E-12 4.940E-05 7.546E-18
 ETOT 90  -1055.0601893088     5.912E-12 4.356E-05 8.621E-18
 ETOT 91  -1055.0601893088     2.728E-12 2.955E-05 7.902E-18
 ETOT 92  -1055.0601893088     1.205E-11 2.580E-05 7.130E-18
 ETOT 93  -1055.0601893088    -5.684E-12 1.690E-05 6.783E-18
 ETOT 94  -1055.0601893088     9.095E-13 1.473E-05 7.487E-18
 ETOT 95  -1055.0601893088     2.274E-12 9.395E-06 7.270E-18
 ETOT 96  -1055.0601893088    -2.728E-12 8.197E-06 7.732E-18
 ETOT 97  -1055.0601893088     1.819E-12 4.878E-06 7.061E-18
 ETOT 98  -1055.0601893088     1.819E-12 4.201E-06 6.903E-18
 ETOT 99  -1055.0601893088    -6.821E-13 1.906E-06 6.108E-18
 ETOT  100  -1055.0601893088     0.000E+00 1.868E-06 5.991E-18
 ETOT  101  -1055.0601893088     2.274E-13 8.945E-07 5.477E-18
 ETOT  102  -1055.0601893088    -1.592E-12 9.653E-07 6.388E-18
 ETOT  103  -1055.0601893088     6.821E-13 5.208E-07 5.832E-18
 ETOT  104  -1055.0601893088     1.364E-12 5.872E-07 5.743E-18
 ETOT  105  -1055.0601893088     0.000E+00 3.260E-07 5.746E-18
 ETOT  106  -1055.0601893088    -4.547E-13 3.667E-07 5.449E-18
 ETOT  107  -1055.0601893088    -1.137E-12 1.896E-07 5.694E-18
 ETOT  108  -1055.0601893088    -1.137E-12 2.122E-07 4.713E-18
 ETOT  109  -1055.0601893088    -4.547E-13 1.082E-07 5.241E-18
 ETOT  110  -1055.0601893088    -9.095E-13 1.215E-07 4.530E-18
 ETOT  111  -1055.0601893088    -1.364E-12 6.168E-08 5.670E-18
 ETOT  112  -1055.0601893088    -9.095E-13 6.956E-08 4.877E-18
 ETOT  113  -1055.0601893088    -3.183E-12 3.516E-08 5.170E-18
 ETOT  114  -1055.0601893088    -2.274E-13 3.982E-08 4.540E-18
 ETOT  115  -1055.0601893088    -2.956E-12 2.005E-08 4.998E-18
 ETOT  116  -1055.0601893088    -1.364E-12 2.280E-08 4.907E-18
 ETOT  117  -1055.0601893088     9.095E-13 1.144E-08 4.386E-18
 ETOT  118  -1055.0601893088    -9.095E-13 1.305E-08 3.772E-18
 ETOT  119  -1055.0601893088    -1.364E-12 6.525E-09 5.249E-18
 ETOT  120  -1055.0601893088     9.095E-13 7.477E-09 4.500E-18
 ETOT  121  -1055.0601893088     0.000E+00 3.725E-09 5.091E-18
 ETOT  122  -1055.0601893088    -4.547E-13 4.283E-09 4.566E-18
 ETOT  123  -1055.0601893088     2.274E-13 2.127E-09 3.501E-18
 ETOT  124  -1055.0601893088    -2.956E-12 2.454E-09 4.472E-18
 ETOT  125  -1055.0601893088     1.819E-12 1.215E-09 4.137E-18
 ETOT  126  -1055.0601893088    -4.547E-13 1.406E-09 4.396E-18
 ETOT  127  -1055.0601893088     9.095E-13 6.940E-10 4.573E-18
 ETOT  128  -1055.0601893088    -6.821E-13 8.059E-10 5.350E-18
 ETOT  129  -1055.0601893088     6.821E-13 3.967E-10 3.982E-18
 ETOT  130  -1055.0601893088    -9.095E-13 4.619E-10 3.825E-18
 ETOT  131  -1055.0601893088     0.000E+00 2.268E-10 4.723E-18
 ETOT  132  -1055.0601893088     1.819E-12 2.648E-10 4.378E-18
 ETOT  133  -1055.0601893088     4.547E-13 1.297E-10 4.244E-18
 ETOT  134  -1055.0601893088     2.274E-13 1.518E-10 3.579E-18
 ETOT  135  -1055.0601893088     1.819E-12 7.421E-11 4.481E-18
 ETOT  136  -1055.0601893088    -1.592E-12 8.705E-11 4.006E-18
 ETOT  137  -1055.0601893088     9.095E-13 4.247E-11 4.701E-18
 ETOT  138  -1055.0601893088    -1.819E-12 4.992E-11 3.314E-18
 ETOT  139  -1055.0601893088     1.819E-12 2.431E-11 4.698E-18
 ETOT  140  -1055.0601893088    -4.547E-13 2.863E-11 4.426E-18
 ETOT  141  -1055.0601893088    -6.821E-13 1.392E-11 3.516E-18
 ETOT  142  -1055.0601893088     4.547E-13 1.642E-11 4.799E-18
 ETOT  143  -1055.0601893088     6.821E-13 7.971E-12 3.748E-18
 ETOT  144  -1055.0601893088    -4.547E-13 9.417E-12 3.576E-18
 ETOT  145  -1055.0601893088    -4.547E-13 4.566E-12 3.879E-18
 ETOT  146  -1055.0601893088     1.137E-12 5.402E-12 3.988E-18
 ETOT  147  -1055.0601893088    -1.137E-12 2.616E-12 3.909E-18
 ETOT  148  -1055.0601893088    -1.137E-12 3.099E-12 3.501E-18
 ETOT  149  -1055.0601893088     9.095E-13 1.499E-12 3.685E-18
 ETOT  150  -1055.0601893088     2.274E-13 1.778E-12 3.084E-18
 ETOT  151  -1055.0601893088    -4.547E-13 8.593E-13 4.573E-18
 ETOT  152  -1055.0601893088     2.274E-13 1.020E-12 4.120E-18
 ETOT  153  -1055.0601893088    -2.274E-13 4.926E-13 4.992E-18
 ETOT  154  -1055.0601893088    -4.547E-13 5.851E-13 4.063E-18
 ETOT  155  -1055.0601893088    -9.095E-13 2.825E-13 4.183E-18
 ETOT  156  -1055.0601893088     4.547E-13 3.357E-13 3.721E-18
 ETOT  157  -1055.0601893088     0.000E+00 1.620E-13 3.384E-18
 ETOT  158  -1055.0601893088    -9.095E-13 1.926E-13 3.593E-18
 ETOT  159  -1055.0601893088     2.274E-13 9.290E-14 5.460E-18
 ETOT  160  -1055.0601893088    -2.274E-13 1.105E-13 4.607E-18
 ETOT  161  -1055.0601893088     6.821E-13 5.329E-14 3.883E-18
 ETOT  162  -1055.0601893088    -6.821E-13 6.341E-14 4.086E-18
 ETOT  163  -1055.0601893088     6.821E-13 3.057E-14 3.941E-18
 ETOT  164  -1055.0601893088    -1.137E-12 3.639E-14 3.745E-18
 ETOT  165  -1055.0601893088     2.274E-13 1.754E-14 3.711E-18
 ETOT  166  -1055.0601893088    -2.274E-13 2.088E-14 3.775E-18
 ETOT  167  -1055.0601893088     0.000E+00 1.007E-14 4.722E-18
 ETOT  168  -1055.0601893088     0.000E+00 1.198E-14 3.630E-18
 ETOT  169  -1055.0601893088    -2.274E-13 5.777E-15 3.956E-18
 ETOT  170  -1055.0601893088    -2.274E-13 6.876E-15 3.530E-18
 ETOT  171  -1055.0601893088    -9.095E-13 3.315E-15 4.601E-18
 ETOT  172  -1055.0601893088     4.547E-13 3.946E-15 4.072E-18
 ETOT  173  -1055.0601893088     9.095E-13 1.903E-15 3.347E-18
 ETOT  174  -1055.0601893088    -4.547E-13 2.264E-15 3.267E-18
 ETOT  175  -1055.0601893088    -2.274E-13 1.092E-15 4.875E-18
 ETOT  176  -1055.0601893088    -4.547E-13 1.300E-15 3.343E-18
 ETOT  177  -1055.0601893088     1.137E-12 6.272E-16 2.966E-18
 ETOT  178  -1055.0601893088    -2.274E-13 7.458E-16 3.568E-18
 ETOT  179  -1055.0601893088    -4.547E-13 3.601E-16 3.947E-18
 ETOT  180  -1055.0601893088     2.274E-13 4.280E-16 5.422E-18
 ETOT  181  -1055.0601893088    -4.547E-13 2.068E-16 3.641E-18
 ETOT  182  -1055.0601893088     2.274E-13 2.457E-16 3.738E-18
 ETOT  183  -1055.0601893088    -2.274E-13 1.187E-16 3.737E-18
 ETOT  184  -1055.0601893088     9.095E-13 1.410E-16 3.898E-18
 ETOT  185  -1055.0601893088    -9.095E-13 6.818E-17 3.223E-18
 ETOT  186  -1055.0601893088     0.000E+00 8.092E-17 4.237E-18
 ETOT  187  -1055.0601893088     4.547E-13 3.916E-17 4.604E-18
 ETOT  188  -1055.0601893088    -4.547E-13 4.645E-17 4.414E-18
 ETOT  189  -1055.0601893088     9.095E-13 2.249E-17 4.199E-18
 ETOT  190  -1055.0601893088    -9.095E-13 2.666E-17 3.821E-18
 ETOT  191  -1055.0601893088     4.547E-13 1.292E-17 3.590E-18
 ETOT  192  -1055.0601893088    -9.095E-13 1.530E-17 4.012E-18
 ETOT  193  -1055.0601893088     9.095E-13 7.421E-18 4.523E-18
 ETOT  194  -1055.0601893088     0.000E+00 8.784E-18 3.397E-18
 ETOT  195  -1055.0601893088     4.547E-13 4.263E-18 3.367E-18
 ETOT  196  -1055.0601893088    -9.095E-13 5.042E-18 3.369E-18
 ETOT  197  -1055.0601893088     9.095E-13 2.449E-18 3.931E-18
 ETOT  198  -1055.0601893088     4.547E-13 2.894E-18 3.661E-18
 ETOT  199  -1055.0601893088    -9.095E-13 1.407E-18 4.041E-18
 ETOT  200  -1055.0601893088    -6.821E-13 1.662E-18 4.224E-18
 ETOT  201  -1055.0601893088     1.137E-12 8.084E-19 3.201E-18
 ETOT  202  -1055.0601893088    -6.821E-13 9.539E-19 3.644E-18
 ETOT  203  -1055.0601893088     4.547E-13 4.645E-19 4.261E-18
 ETOT  204  -1055.0601893088     0.000E+00 5.476E-19 4.207E-18
 ETOT  205  -1055.0601893088    -1.137E-12 2.669E-19 4.132E-18
 ETOT  206  -1055.0601893088     1.137E-12 3.144E-19 3.707E-18
 ETOT  207  -1055.0601893088    -9.095E-13 1.534E-19 4.391E-18
 ETOT  208  -1055.0601893088     6.821E-13 1.805E-19 3.370E-18
 ETOT  209  -1055.0601893088     6.821E-13 8.815E-20 3.563E-18
 ETOT  210  -1055.0601893088    -6.821E-13 1.037E-19 3.862E-18
 ETOT  211  -1055.0601893088    -6.821E-13 5.066E-20 4.622E-18
 ETOT  212  -1055.0601893088     1.137E-12 5.952E-20 3.308E-18
 ETOT  213  -1055.0601893088     0.000E+00 2.912E-20 4.029E-18
 ETOT  214  -1055.0601893088    -4.547E-13 3.418E-20 3.700E-18
 ETOT  215  -1055.0601893088    -2.274E-13 1.674E-20 3.837E-18
 ETOT  216  -1055.0601893088     6.821E-13 1.963E-20 3.571E-18
 ETOT  217  -1055.0601893088     0.000E+00 9.868E-21 3.575E-18

 At SCF step  217   max residual=  9.87E-21 < tolwfr=  1.00E-20 =>converged.

 Cartesian components of stress tensor (hartree/bohr^3)
  sigma(1 1)=  1.38261690E-02  sigma(3 2)=  0.00000000E+00
  sigma(2 2)=  1.38261690E-02  sigma(3 1)=  0.00000000E+00
  sigma(3 3)=  1.38879584E-02  sigma(2 1)=  0.00000000E+00


--- !ResultsGS
iteration_state: {dtset: 1, }
comment   : Summary of ground state results
lattice_vectors:
- [  7.7624317,   0.0000000,   0.0000000, ]
- [  0.0000000,   7.7624317,   0.0000000, ]
- [  0.0000000,   0.0000000,  34.6505412, ]
lattice_lengths: [   7.76243,    7.76243,   34.65054, ]
lattice_angles: [ 90.000,  90.000,  90.000, ] # degrees, (23, 13, 12)
lattice_volume:   2.0878803E+03
convergence: {deltae:  0.000E+00, res2:  3.575E-18, residm:  9.868E-21, diffor: null, }
etotal    :  -1.05506019E+03
entropy   :   0.00000000E+00
fermie    :   5.89826861E-02
cartesian_stress_tensor: # hartree/bohr^3
- [  1.38261690E-02,   0.00000000E+00,   0.00000000E+00, ]
- [  0.00000000E+00,   1.38261690E-02,   0.00000000E+00, ]
- [  0.00000000E+00,   0.00000000E+00,   1.38879584E-02, ]
pressure_GPa:  -4.0739E+02
xred      :
- [  5.0000E-01,   0.0000E+00,   2.5449E-01, Sn]
- [  0.0000E+00,   5.0000E-01,   4.0445E-01, Sn]
- [  5.0000E-01,   0.0000E+00,   4.0272E-01, Se]
- [  0.0000E+00,   5.0000E-01,   2.5623E-01, Se]
- [  5.0000E-01,   0.0000E+00,   5.8244E-01, Se]
- [  0.0000E+00,   5.0000E-01,   7.4551E-01, Se]
- [  5.0000E-01,   5.0000E-01,   6.6397E-01, Zn]
- [  0.0000E+00,   0.0000E+00,   6.6397E-01, Zn]
cartesian_forces: # hartree/bohr
- [ -0.00000000E+00,  -0.00000000E+00,  -4.49247831E-03, ]
- [ -0.00000000E+00,  -0.00000000E+00,   2.76887950E-03, ]
- [ -0.00000000E+00,  -0.00000000E+00,  -7.42320379E-03, ]
- [ -0.00000000E+00,  -0.00000000E+00,  -1.11414574E-03, ]
- [ -0.00000000E+00,  -0.00000000E+00,   8.98521655E-03, ]
- [ -0.00000000E+00,  -0.00000000E+00,  -1.25652484E-02, ]
- [ -0.00000000E+00,  -0.00000000E+00,   6.92049007E-03, ]
- [ -0.00000000E+00,  -0.00000000E+00,   6.92049007E-03, ]
force_length_stats: {min:   1.11414574E-03, max:   1.25652484E-02, mean:   6.39876905E-03, }
...

 Integrated electronic density in atomic spheres:
 ------------------------------------------------
 Atom  Sphere_radius  Integrated_density
    1        2.00000         10.56561993
    2        2.00000         10.54108734
    3        2.00000         13.27836865
    4        2.00000         13.28124235
    5        2.00000         13.24978322
    6        2.00000         13.28399057
    7        2.00000         18.09512962
    8        2.00000         18.09512962
================================================================================

 ----iterations are completed or convergence reached----

 Mean square residual over all n,k,spin=   30.391E-22; max=  98.682E-22
 reduced coordinates (array xred) for    8 atoms
       0.500000000000      0.000000000000      0.254494000000
       0.000000000000      0.500000000000      0.404449000000
       0.500000000000      0.000000000000      0.402717000000
       0.000000000000      0.500000000000      0.256226000000
       0.500000000000      0.000000000000      0.582441000000
       0.000000000000      0.500000000000      0.745506000000
       0.500000000000      0.500000000000      0.663974000000
       0.000000000000      0.000000000000      0.663974000000
 rms dE/dt=  1.5075E-01; max dE/dt=  3.6226E-01; dE/dt below (all hartree)
    1       0.000000000000      0.000000000000      0.082536643175
    2       0.000000000000      0.000000000000     -0.169073334804
    3       0.000000000000      0.000000000000      0.184087867489
    4       0.000000000000      0.000000000000     -0.034524408750
    5       0.000000000000      0.000000000000     -0.384472777988
    6       0.000000000000      0.000000000000      0.362262494756
    7       0.000000000000      0.000000000000     -0.312928888158
    8       0.000000000000      0.000000000000     -0.312928888158

 cartesian coordinates (angstrom) at end:
    1      2.05385096425820     0.00000000000000     4.66647239763049
    2      0.00000000000000     2.05385096425820     7.41608876731576
    3      2.05385096425820     0.00000000000000     7.38433033610442
    4      0.00000000000000     2.05385096425820     4.69823082884182
    5      2.05385096425820     0.00000000000000    10.67979932630358
    6      0.00000000000000     2.05385096425820    13.66980428327552
    7      2.05385096425820     2.05385096425820    12.17481097292788
    8      0.00000000000000     0.00000000000000    12.17481097292788

 cartesian forces (hartree/bohr) at end:
    1     -0.00000000000000    -0.00000000000000    -0.00449247830573
    2     -0.00000000000000    -0.00000000000000     0.00276887949973
    3     -0.00000000000000    -0.00000000000000    -0.00742320379306
    4     -0.00000000000000    -0.00000000000000    -0.00111414573746
    5     -0.00000000000000    -0.00000000000000     0.00898521654894
    6     -0.00000000000000    -0.00000000000000    -0.01256524836074
    7     -0.00000000000000    -0.00000000000000     0.00692049007416
    8     -0.00000000000000    -0.00000000000000     0.00692049007416
 frms,max,avg= 4.1763235E-03 1.2565248E-02   0.000E+00  0.000E+00  2.111E-03 h/b

 cartesian forces (eV/Angstrom) at end:
    1     -0.00000000000000    -0.00000000000000    -0.23101250332679
    2     -0.00000000000000    -0.00000000000000     0.14238149660671
    3     -0.00000000000000    -0.00000000000000    -0.38171645453536
    4     -0.00000000000000    -0.00000000000000    -0.05729167251700
    5     -0.00000000000000    -0.00000000000000     0.46203837317554
    6     -0.00000000000000    -0.00000000000000    -0.64613099523192
    7     -0.00000000000000    -0.00000000000000     0.35586587791441
    8     -0.00000000000000    -0.00000000000000     0.35586587791441
 frms,max,avg= 2.1475517E-01 6.4613100E-01   0.000E+00  0.000E+00  1.085E-01 e/A
 length scales=  7.762431680422  7.762431680422  7.762431680422 bohr
              =  4.107701928516  4.107701928516  4.107701928516 angstroms
 prteigrs : about to open file Cs2TiI6o_DS1_EIG
 Fermi (or HOMO) energy (hartree) =   0.05898   Average Vxc (hartree)=  -0.25694
 Eigenvalues (hartree) for nkpt=  15  k points:
 kpt#   1, nband= 67, wtk=  0.04000, kpt=  0.0500  0.0500  0.2500 (reduced coord)
  -4.80723   -4.80722   -3.04461   -3.04436   -3.04257   -3.04194   -3.04178   -3.04158
  -1.75664   -1.75583   -1.75582   -1.75456   -1.75433   -1.75183   -1.75139   -1.74998
  -1.74798   -1.74736   -1.72706   -1.72651   -1.72613   -1.72579   -1.72475   -1.72214
  -1.72175   -1.72076   -1.71731   -1.71692   -0.73419   -0.73322   -0.73303   -0.73227
  -0.73224   -0.73048   -0.73031   -0.73025   -0.72921   -0.72918   -0.47979   -0.46399
  -0.45246   -0.42145   -0.26996   -0.26820   -0.26777   -0.26729   -0.26708   -0.25499
  -0.25489   -0.25181   -0.24827   -0.24653   -0.17673   -0.15602   -0.13987   -0.08902
  -0.08241   -0.07835   -0.07472   -0.06418   -0.03190   -0.02492   -0.01811   -0.01051
  -0.01010    0.03227    0.07063
 prteigrs : prtvol=0 or 1, do not print more k-points.


--- !EnergyTerms
iteration_state     : {dtset: 1, }
comment             : Components of total free energy in Hartree
kinetic             :  5.73386166273890E+02
hartree             :  1.14963389188881E+03
xc                  : -1.83753343603286E+02
Ewald energy        :  2.72288370272812E+02
psp_core            :  1.49698195633781E+01
local_psp           : -2.54532943325664E+03
non_local_psp       : -3.36188171134359E+02
VdWaals_dft_d       : -6.74893134385723E-02
total_energy        : -1.05506018930883E+03
total_energy_eV     : -2.87096478066869E+04
band_energy         : -1.50781663210201E+02
...


 Cartesian components of stress tensor (hartree/bohr^3)
  sigma(1 1)=  1.38261690E-02  sigma(3 2)=  0.00000000E+00
  sigma(2 2)=  1.38261690E-02  sigma(3 1)=  0.00000000E+00
  sigma(3 3)=  1.38879584E-02  sigma(2 1)=  0.00000000E+00

-Cartesian components of stress tensor (GPa)         [Pressure= -4.0739E+02 GPa]
- sigma(1 1)=  4.06779869E+02  sigma(3 2)=  0.00000000E+00
- sigma(2 2)=  4.06779869E+02  sigma(3 1)=  0.00000000E+00
- sigma(3 3)=  4.08597775E+02  sigma(2 1)=  0.00000000E+00

================================================================================
== DATASET  2 ==================================================================
-   mpi_nproc: 6, omp_nthreads: -1 (-1 if OMP is not activated)


--- !DatasetInfo
iteration_state: {dtset: 2, }
dimensions: {natom: 8, nkpt: 15, mband: 150, nsppol: 1, nspinor: 1, nspden: 1, mpw: 10680, }
cutoff_energies: {ecut:  22.5, pawecutdg:  -1.0, }
electrons: {nelect:   1.32000000E+02, charge:   0.00000000E+00, occopt:   1.00000000E+00, tsmear:   1.00000000E-02, }
meta: {optdriver: 0, ionmov: 0, optcell: 0, iscf: -2, paral_kgb: 0, }
...

 mkfilename : getwfk/=0, take file _WFK from output of DATASET   1.

 mkfilename : getden/=0, take file _DEN from output of DATASET   1.

 Exchange-correlation functional for the present dataset will be:
  GGA: Perdew-Burke-Ernzerhof functional - ixc=11
 Citation for XC functional:
  J.P.Perdew, K.Burke, M.Ernzerhof, PRL 77, 3865 (1996)

 Real(R)+Recip(G) space primitive vectors, cartesian coordinates (Bohr,Bohr^-1):
 R(1)=  7.7624317  0.0000000  0.0000000  G(1)=  0.1288256  0.0000000  0.0000000
 R(2)=  0.0000000  7.7624317  0.0000000  G(2)=  0.0000000  0.1288256  0.0000000
 R(3)=  0.0000000  0.0000000 34.6505412  G(3)=  0.0000000  0.0000000  0.0288596
 Unit cell volume ucvol=  2.0878803E+03 bohr^3
 Angles (23,13,12)=  9.00000000E+01  9.00000000E+01  9.00000000E+01 degrees

 getcut: wavevector=  0.0000  0.0000  0.0000  ngfft=  36  36 150
         ecut(hartree)=     22.500   => boxcut(ratio)=   2.02733
--------------------------------------------------------------------------------

-inwffil : will read wavefunctions from disk file Cs2TiI6o_DS1_WFK

================================================================================
 prteigrs : about to open file Cs2TiI6o_DS2_EIG
 Non-SCF case, kpt    1 (  0.05000  0.05000  0.25000), residuals and eigenvalues=
  2.97E-21  3.11E-21  4.90E-21  4.89E-21  4.29E-21  4.73E-21  4.76E-21  4.35E-21
  9.06E-22  3.43E-22  8.72E-22  2.92E-22  9.34E-22  1.38E-21  9.67E-22  2.13E-21
  1.75E-21  1.83E-21  9.64E-23  2.22E-22  1.94E-22  8.54E-23  2.53E-22  9.69E-23
  3.21E-22  2.67E-22  2.19E-22  2.25E-22  2.36E-21  2.78E-21  5.74E-21  1.59E-21
  1.72E-21  1.83E-21  3.26E-21  3.60E-21  1.79E-21  1.79E-21  2.77E-22  8.73E-22
  3.93E-22  2.38E-21  6.13E-21  3.32E-21  2.95E-21  6.60E-21  3.09E-21  4.40E-21
  2.31E-21  6.59E-21  1.19E-21  6.31E-21  2.43E-21  1.73E-21  2.83E-21  4.05E-21
  7.66E-22  1.61E-21  1.58E-21  3.63E-21  2.26E-21  1.98E-21  7.96E-21  4.91E-21
  3.50E-21  5.44E-21  6.13E-21  3.94E-21  3.68E-21  7.00E-21  4.19E-21  4.18E-21
  5.13E-21  3.71E-21  3.81E-21  6.33E-21  8.51E-21  3.21E-21  4.96E-21  9.97E-21
  4.13E-21  4.97E-21  7.04E-21  6.40E-21  6.37E-21  8.37E-21  1.97E-21  9.50E-21
  8.56E-21  2.73E-21  9.14E-21  6.65E-21  9.12E-21  4.08E-21  7.77E-21  7.10E-21
  8.70E-21  4.99E-21  9.17E-21  2.16E-21  3.98E-21  2.13E-21  6.62E-21  3.99E-21
  6.47E-21  4.35E-21  2.55E-21  6.60E-21  7.83E-21  6.99E-21  4.44E-21  8.01E-21
  4.91E-21  8.44E-21  9.13E-21  4.70E-21  5.29E-21  9.60E-21  4.16E-21  6.96E-21
  4.13E-21  9.71E-21  6.15E-21  6.11E-21  5.91E-21  9.05E-21  8.68E-21  5.46E-21
  6.10E-21  1.93E-21  5.59E-21  6.92E-21  9.14E-21  7.52E-21  4.34E-21  7.46E-21
  8.08E-21  5.39E-21  9.87E-21  9.21E-21  4.95E-21  8.45E-21  5.88E-21  5.21E-21
  6.02E-21  5.58E-21  8.79E-21  6.12E-21  2.63E-16  5.03E-13
 -4.8072E+00 -4.8072E+00 -3.0446E+00 -3.0444E+00 -3.0426E+00 -3.0419E+00
 -3.0418E+00 -3.0416E+00 -1.7566E+00 -1.7558E+00 -1.7558E+00 -1.7546E+00
 -1.7543E+00 -1.7518E+00 -1.7514E+00 -1.7500E+00 -1.7480E+00 -1.7474E+00
 -1.7271E+00 -1.7265E+00 -1.7261E+00 -1.7258E+00 -1.7248E+00 -1.7221E+00
 -1.7217E+00 -1.7208E+00 -1.7173E+00 -1.7169E+00 -7.3419E-01 -7.3322E-01
 -7.3303E-01 -7.3227E-01 -7.3224E-01 -7.3048E-01 -7.3031E-01 -7.3025E-01
 -7.2921E-01 -7.2918E-01 -4.7979E-01 -4.6399E-01 -4.5246E-01 -4.2145E-01
 -2.6996E-01 -2.6820E-01 -2.6777E-01 -2.6729E-01 -2.6708E-01 -2.5499E-01
 -2.5489E-01 -2.5181E-01 -2.4827E-01 -2.4653E-01 -1.7673E-01 -1.5602E-01
 -1.3987E-01 -8.9023E-02 -8.2410E-02 -7.8351E-02 -7.4719E-02 -6.4183E-02
 -3.1898E-02 -2.4916E-02 -1.8110E-02 -1.0507E-02 -1.0103E-02  3.2270E-02
  7.0635E-02  8.5755E-02  1.1811E-01  1.3107E-01  1.9244E-01  1.9606E-01
  2.1376E-01  2.1390E-01  2.2512E-01  2.2619E-01  2.3486E-01  2.3739E-01
  2.5296E-01  2.6174E-01  2.7165E-01  2.8032E-01  3.2054E-01  3.3146E-01
  3.3941E-01  3.4418E-01  3.6388E-01  3.7954E-01  3.9063E-01  4.1308E-01
  4.1377E-01  4.3620E-01  4.3989E-01  4.4922E-01  4.5420E-01  4.5796E-01
  4.6488E-01  4.7023E-01  4.8058E-01  4.8837E-01  4.9274E-01  5.0424E-01
  5.1253E-01  5.1373E-01  5.2537E-01  5.2541E-01  5.3425E-01  5.4953E-01
  5.5309E-01  5.5547E-01  5.6681E-01  5.7270E-01  5.7880E-01  5.9650E-01
  5.9754E-01  6.0816E-01  6.1411E-01  6.1757E-01  6.2920E-01  6.3262E-01
  6.5048E-01  6.5078E-01  6.7252E-01  6.8057E-01  6.8114E-01  6.9293E-01
  7.0318E-01  7.1095E-01  7.2121E-01  7.2907E-01  7.4045E-01  7.4704E-01
  7.6566E-01  7.6634E-01  7.7036E-01  7.7823E-01  7.8757E-01  7.9588E-01
  8.0305E-01  8.1544E-01  8.1945E-01  8.3311E-01  8.4334E-01  8.4522E-01
  8.5011E-01  8.5410E-01  8.6191E-01  8.7704E-01  8.8264E-01  8.8747E-01
  prteigrs : nnsclo,ikpt=  200    1 max resid (incl. the buffer)=  5.03262E-13
 prteigrs : prtvol=0 or 1, do not print more k-points.

  prteigrs : nnsclo,ikpt=  200    2 max resid (incl. the buffer)=  1.87655E-12
  prteigrs : nnsclo,ikpt=  200    3 max resid (incl. the buffer)=  3.67968E-13
  prteigrs : nnsclo,ikpt=  200    4 max resid (incl. the buffer)=  6.07785E-10
  prteigrs : nnsclo,ikpt=  200    5 max resid (incl. the buffer)=  2.05810E-08
  prteigrs : nnsclo,ikpt=  200    6 max resid (incl. the buffer)=  3.86723E-07
  prteigrs : nnsclo,ikpt=  200    7 max resid (incl. the buffer)=  1.30407E-13
  prteigrs : nnsclo,ikpt=  200    8 max resid (incl. the buffer)=  7.27619E-08
  prteigrs : nnsclo,ikpt=  200    9 max resid (incl. the buffer)=  4.59784E-11
  prteigrs : nnsclo,ikpt=  200   10 max resid (incl. the buffer)=  7.23125E-12
  prteigrs : nnsclo,ikpt=  200   11 max resid (incl. the buffer)=  1.85376E-08
  prteigrs : nnsclo,ikpt=  200   12 max resid (incl. the buffer)=  2.07969E-07
  prteigrs : nnsclo,ikpt=  200   13 max resid (incl. the buffer)=  1.75902E-12
  prteigrs : nnsclo,ikpt=  200   14 max resid (incl. the buffer)=  8.20697E-09
  prteigrs : nnsclo,ikpt=  200   15 max resid (incl. the buffer)=  1.36182E-08


--- !ResultsGS
iteration_state: {dtset: 2, }
comment   : Summary of ground state results
lattice_vectors:
- [  7.7624317,   0.0000000,   0.0000000, ]
- [  0.0000000,   7.7624317,   0.0000000, ]
- [  0.0000000,   0.0000000,  34.6505412, ]
lattice_lengths: [   7.76243,    7.76243,   34.65054, ]
lattice_angles: [ 90.000,  90.000,  90.000, ] # degrees, (23, 13, 12)
lattice_volume:   2.0878803E+03
convergence: {deltae:  0.000E+00, res2:  0.000E+00, residm:  9.980E-21, diffor:  0.000E+00, }
etotal    :  -1.05506019E+03
entropy   :   0.00000000E+00
fermie    :   5.89826861E-02
cartesian_stress_tensor: null
pressure_GPa: null
xred      :
- [  5.0000E-01,   0.0000E+00,   2.5449E-01, Sn]
- [  0.0000E+00,   5.0000E-01,   4.0445E-01, Sn]
- [  5.0000E-01,   0.0000E+00,   4.0272E-01, Se]
- [  0.0000E+00,   5.0000E-01,   2.5623E-01, Se]
- [  5.0000E-01,   0.0000E+00,   5.8244E-01, Se]
- [  0.0000E+00,   5.0000E-01,   7.4551E-01, Se]
- [  5.0000E-01,   5.0000E-01,   6.6397E-01, Zn]
- [  0.0000E+00,   0.0000E+00,   6.6397E-01, Zn]
cartesian_forces: null
force_length_stats: {min: null, max: null, mean: null, }
...

 Integrated electronic density in atomic spheres:
 ------------------------------------------------
 Atom  Sphere_radius  Integrated_density
    1        2.00000         10.56561993
    2        2.00000         10.54108734
    3        2.00000         13.27836865
    4        2.00000         13.28124235
    5        2.00000         13.24978322
    6        2.00000         13.28399057
    7        2.00000         18.09512962
    8        2.00000         18.09512962
================================================================================

 ----iterations are completed or convergence reached----

 Mean square residual over all n,k,spin=   45.359E-22; max=  99.799E-22
 reduced coordinates (array xred) for    8 atoms
       0.500000000000      0.000000000000      0.254494000000
       0.000000000000      0.500000000000      0.404449000000
       0.500000000000      0.000000000000      0.402717000000
       0.000000000000      0.500000000000      0.256226000000
       0.500000000000      0.000000000000      0.582441000000
       0.000000000000      0.500000000000      0.745506000000
       0.500000000000      0.500000000000      0.663974000000
       0.000000000000      0.000000000000      0.663974000000

 cartesian coordinates (angstrom) at end:
    1      2.05385096425820     0.00000000000000     4.66647239763049
    2      0.00000000000000     2.05385096425820     7.41608876731576
    3      2.05385096425820     0.00000000000000     7.38433033610442
    4      0.00000000000000     2.05385096425820     4.69823082884182
    5      2.05385096425820     0.00000000000000    10.67979932630358
    6      0.00000000000000     2.05385096425820    13.66980428327552
    7      2.05385096425820     2.05385096425820    12.17481097292788
    8      0.00000000000000     0.00000000000000    12.17481097292788
 length scales=  7.762431680422  7.762431680422  7.762431680422 bohr
              =  4.107701928516  4.107701928516  4.107701928516 angstroms
 prteigrs : about to open file Cs2TiI6o_DS2_EIG
 Eigenvalues (hartree) for nkpt=  15  k points:
 kpt#   1, nband=150, wtk=  0.04000, kpt=  0.0500  0.0500  0.2500 (reduced coord)
  -4.80723   -4.80722   -3.04461   -3.04436   -3.04257   -3.04194   -3.04178   -3.04158
  -1.75664   -1.75583   -1.75582   -1.75456   -1.75433   -1.75183   -1.75139   -1.74998
  -1.74798   -1.74736   -1.72706   -1.72651   -1.72613   -1.72579   -1.72475   -1.72214
  -1.72175   -1.72076   -1.71731   -1.71692   -0.73419   -0.73322   -0.73303   -0.73227
  -0.73224   -0.73048   -0.73031   -0.73025   -0.72921   -0.72918   -0.47979   -0.46399
  -0.45246   -0.42145   -0.26996   -0.26820   -0.26777   -0.26729   -0.26708   -0.25499
  -0.25489   -0.25181   -0.24827   -0.24653   -0.17673   -0.15602   -0.13987   -0.08902
  -0.08241   -0.07835   -0.07472   -0.06418   -0.03190   -0.02492   -0.01811   -0.01051
  -0.01010    0.03227    0.07063    0.08576    0.11811    0.13107    0.19244    0.19606
   0.21376    0.21390    0.22512    0.22619    0.23486    0.23739    0.25296    0.26174
   0.27165    0.28032    0.32054    0.33146    0.33941    0.34418    0.36388    0.37954
   0.39063    0.41308    0.41377    0.43620    0.43989    0.44922    0.45420    0.45796
   0.46488    0.47023    0.48058    0.48837    0.49274    0.50424    0.51253    0.51373
   0.52537    0.52541    0.53425    0.54953    0.55309    0.55547    0.56681    0.57270
   0.57880    0.59650    0.59754    0.60816    0.61411    0.61757    0.62920    0.63262
   0.65048    0.65078    0.67252    0.68057    0.68114    0.69293    0.70318    0.71095
   0.72121    0.72907    0.74045    0.74704    0.76566    0.76634    0.77036    0.77823
   0.78757    0.79588    0.80305    0.81544    0.81945    0.83311    0.84334    0.84522
   0.85011    0.85410    0.86191    0.87704    0.88264    0.88747
 prteigrs : prtvol=0 or 1, do not print more k-points.


[...]
                       2.000000  2.000000  2.000000  2.000000  2.000000  2.000000
                       2.000000  2.000000  2.000000  2.000000  2.000000  2.000000
                       2.000000  2.000000  2.000000  2.000000  2.000000  2.000000
                       2.000000  2.000000  2.000000  2.000000  2.000000  2.000000
                       2.000000  2.000000  2.000000  2.000000  2.000000  2.000000
                       2.000000  2.000000  2.000000  2.000000  2.000000  2.000000
                       2.000000  2.000000  2.000000  2.000000  2.000000  2.000000
                       2.000000  2.000000  2.000000  2.000000  2.000000  2.000000
                       0.000000
              occ4     2.000000  2.000000  2.000000  2.000000  2.000000  2.000000
                       2.000000  2.000000  2.000000  2.000000  2.000000  2.000000
                       2.000000  2.000000  2.000000  2.000000  2.000000  2.000000
                       2.000000  2.000000  2.000000  2.000000  2.000000  2.000000
                       2.000000  2.000000  2.000000  2.000000  2.000000  2.000000
                       2.000000  2.000000  2.000000  2.000000  2.000000  2.000000
                       2.000000  2.000000  2.000000  2.000000  2.000000  2.000000
                       2.000000  2.000000  2.000000  2.000000  2.000000  2.000000
                       2.000000  2.000000  2.000000  2.000000  2.000000  2.000000
                       2.000000  2.000000  2.000000  2.000000  2.000000  2.000000
                       2.000000  2.000000  2.000000  2.000000  2.000000  2.000000
                       0.000000  0.000000  0.000000  0.000000  0.000000  0.000000
                       0.000000  0.000000  0.000000  0.000000  0.000000  0.000000
                       0.000000  0.000000  0.000000  0.000000  0.000000  0.000000
                       0.000000  0.000000  0.000000  0.000000  0.000000  0.000000
                       0.000000  0.000000  0.000000  0.000000  0.000000  0.000000
                       0.000000  0.000000  0.000000  0.000000  0.000000  0.000000
                       0.000000  0.000000  0.000000  0.000000  0.000000  0.000000
                       0.000000  0.000000  0.000000  0.000000  0.000000  0.000000
                       0.000000  0.000000  0.000000  0.000000  0.000000  0.000000
                       0.000000  0.000000  0.000000  0.000000  0.000000  0.000000
                       0.000000  0.000000  0.000000  0.000000  0.000000  0.000000
                       0.000000  0.000000  0.000000  0.000000  0.000000  0.000000
                       0.000000  0.000000  0.000000  0.000000  0.000000  0.000000
                       0.000000  0.000000  0.000000  0.000000  0.000000  0.000000
              occ5     2.000000  2.000000  2.000000  2.000000  2.000000  2.000000
                       2.000000  2.000000  2.000000  2.000000  2.000000  2.000000
                       2.000000  2.000000  2.000000  2.000000  2.000000  2.000000
                       2.000000  2.000000  2.000000  2.000000  2.000000  2.000000
                       2.000000  2.000000  2.000000  2.000000  2.000000  2.000000
                       2.000000  2.000000  2.000000  2.000000  2.000000  2.000000
                       2.000000  2.000000  2.000000  2.000000  2.000000  2.000000
                       2.000000  2.000000  2.000000  2.000000  2.000000  2.000000
                       2.000000  2.000000  2.000000  2.000000  2.000000  2.000000
                       2.000000  2.000000  2.000000  2.000000  2.000000  2.000000
                       2.000000  2.000000  2.000000  2.000000  2.000000  2.000000
                       0.000000  0.000000  0.000000  0.000000  0.000000  0.000000
                       0.000000  0.000000  0.000000  0.000000  0.000000  0.000000
                       0.000000  0.000000  0.000000  0.000000  0.000000  0.000000
                       0.000000  0.000000  0.000000  0.000000  0.000000  0.000000
                       0.000000  0.000000  0.000000  0.000000  0.000000  0.000000
                       0.000000  0.000000  0.000000  0.000000  0.000000  0.000000
                       0.000000  0.000000  0.000000  0.000000  0.000000  0.000000
                       0.000000  0.000000  0.000000  0.000000  0.000000  0.000000
                       0.000000  0.000000  0.000000  0.000000  0.000000  0.000000
                       0.000000  0.000000  0.000000  0.000000  0.000000  0.000000
                       0.000000  0.000000  0.000000  0.000000  0.000000  0.000000
                       0.000000  0.000000  0.000000  0.000000  0.000000  0.000000
                       0.000000  0.000000  0.000000  0.000000  0.000000  0.000000
                       0.000000  0.000000  0.000000  0.000000  0.000000  0.000000
              occ6     2.000000  2.000000  2.000000  2.000000  2.000000  2.000000
                       2.000000  2.000000  2.000000  2.000000  2.000000  2.000000
                       2.000000  2.000000  2.000000  2.000000  2.000000  2.000000
                       2.000000  2.000000  2.000000  2.000000  2.000000  2.000000
                       2.000000  2.000000  2.000000  2.000000  2.000000  2.000000
                       2.000000  2.000000  2.000000  2.000000  2.000000  2.000000
                       2.000000  2.000000  2.000000  2.000000  2.000000  2.000000
                       2.000000  2.000000  2.000000  2.000000  2.000000  2.000000
                       2.000000  2.000000  2.000000  2.000000  2.000000  2.000000
                       2.000000  2.000000  2.000000  2.000000  2.000000  2.000000
                       2.000000  2.000000  2.000000  2.000000  2.000000  2.000000
                       0.000000  0.000000  0.000000  0.000000  0.000000  0.000000
                       0.000000  0.000000  0.000000  0.000000  0.000000  0.000000
                       0.000000  0.000000  0.000000  0.000000  0.000000  0.000000
                       0.000000  0.000000  0.000000  0.000000  0.000000  0.000000
                       0.000000  0.000000  0.000000  0.000000  0.000000  0.000000
                       0.000000  0.000000  0.000000  0.000000  0.000000  0.000000
                       0.000000  0.000000  0.000000  0.000000  0.000000  0.000000
                       0.000000  0.000000  0.000000  0.000000  0.000000  0.000000
                       0.000000  0.000000  0.000000  0.000000  0.000000  0.000000
                       0.000000  0.000000  0.000000  0.000000  0.000000  0.000000
                       0.000000  0.000000  0.000000  0.000000  0.000000  0.000000
                       0.000000  0.000000  0.000000  0.000000  0.000000  0.000000
                       0.000000  0.000000  0.000000  0.000000  0.000000  0.000000
                       0.000000  0.000000  0.000000  0.000000  0.000000  0.000000
        optdriver1          0
        optdriver2          0
        optdriver3          0
        optdriver4          1
        optdriver5          1
        optdriver6          1
            prtwf1          1
            prtwf2          1
            prtwf3          1
            prtwf4          3
            prtwf5          3
            prtwf6          3
            rfdir1          0       0       0
            rfdir2          0       0       0
            rfdir3          0       0       0
            rfdir4          1       0       0
            rfdir5          0       1       0
            rfdir6          0       0       1
           rfelfd1          0
           rfelfd2          0
           rfelfd3          0
           rfelfd4          2
           rfelfd5          2
           rfelfd6          2
            rprim      1.0000000000E+00  0.0000000000E+00  0.0000000000E+00
                       0.0000000000E+00  1.0000000000E+00  0.0000000000E+00
                       0.0000000000E+00  0.0000000000E+00  4.4638771264E+00
           shiftk      5.00000000E-01  5.00000000E-01  5.00000000E-01
          spgroup          99
           strten1     1.3826169049E-02  1.3826169049E-02  1.3887958424E-02
                       0.0000000000E+00  0.0000000000E+00  0.0000000000E+00
           symrel      1  0  0   0  1  0   0  0  1       1  0  0   0 -1  0   0  0  1
                      -1  0  0   0 -1  0   0  0  1      -1  0  0   0  1  0   0  0  1
                       0  1  0   1  0  0   0  0  1       0  1  0  -1  0  0   0  0  1
                       0 -1  0  -1  0  0   0  0  1       0 -1  0   1  0  0   0  0  1
            tnons      0.0000000  0.0000000  0.0000000     0.0000000  0.0000000  0.0000000
                       0.0000000  0.0000000  0.0000000     0.0000000  0.0000000  0.0000000
                       0.5000000  0.5000000  0.0000000     0.5000000  0.5000000  0.0000000
                       0.5000000  0.5000000  0.0000000     0.5000000  0.5000000  0.0000000
           tolwfr      1.00000000E-20
            typat      1  1  2  2  2  2  3  3
           vdw_xc           5
              wtk1       0.04000    0.08000    0.08000    0.08000    0.08000    0.04000
                         0.08000    0.08000    0.08000    0.04000    0.08000    0.08000
                         0.04000    0.08000    0.04000
              wtk2       0.04000    0.08000    0.08000    0.08000    0.08000    0.04000
                         0.08000    0.08000    0.08000    0.04000    0.08000    0.08000
                         0.04000    0.08000    0.04000
              wtk3       0.01000    0.01000    0.01000    0.01000    0.01000    0.01000
                         0.01000    0.01000    0.01000    0.01000    0.01000    0.01000
                         0.01000    0.01000    0.01000    0.01000    0.01000    0.01000
                         0.01000    0.01000    0.01000    0.01000    0.01000    0.01000
                         0.01000    0.01000    0.01000    0.01000    0.01000    0.01000
                         0.01000    0.01000    0.01000    0.01000    0.01000    0.01000
                         0.01000    0.01000    0.01000    0.01000    0.01000    0.01000
                         0.01000    0.01000    0.01000    0.01000    0.01000    0.01000
                         0.01000    0.01000
              wtk4       0.01000    0.01000    0.01000    0.01000    0.01000    0.01000
                         0.01000    0.01000    0.01000    0.01000    0.01000    0.01000
                         0.01000    0.01000    0.01000    0.01000    0.01000    0.01000
                         0.01000    0.01000    0.01000    0.01000    0.01000    0.01000
                         0.01000    0.01000    0.01000    0.01000    0.01000    0.01000
                         0.01000    0.01000    0.01000    0.01000    0.01000    0.01000
                         0.01000    0.01000    0.01000    0.01000    0.01000    0.01000
                         0.01000    0.01000    0.01000    0.01000    0.01000    0.01000
                         0.01000    0.01000
              wtk5       0.01000    0.01000    0.01000    0.01000    0.01000    0.01000
                         0.01000    0.01000    0.01000    0.01000    0.01000    0.01000
                         0.01000    0.01000    0.01000    0.01000    0.01000    0.01000
                         0.01000    0.01000    0.01000    0.01000    0.01000    0.01000
                         0.01000    0.01000    0.01000    0.01000    0.01000    0.01000
                         0.01000    0.01000    0.01000    0.01000    0.01000    0.01000
                         0.01000    0.01000    0.01000    0.01000    0.01000    0.01000
                         0.01000    0.01000    0.01000    0.01000    0.01000    0.01000
                         0.01000    0.01000
              wtk6       0.01000    0.01000    0.01000    0.01000    0.01000    0.01000
                         0.01000    0.01000    0.01000    0.01000    0.01000    0.01000
                         0.01000    0.01000    0.01000    0.01000    0.01000    0.01000
                         0.01000    0.01000    0.01000    0.01000    0.01000    0.01000
                         0.01000    0.01000    0.01000    0.01000    0.01000    0.01000
                         0.01000    0.01000    0.01000    0.01000    0.01000    0.01000
                         0.01000    0.01000    0.01000    0.01000    0.01000    0.01000
                         0.01000    0.01000    0.01000    0.01000    0.01000    0.01000
                         0.01000    0.01000
                       outvars : Printing only first  50 k-points.
           xangst      2.0538509643E+00  0.0000000000E+00  4.6664723976E+00
                       0.0000000000E+00  2.0538509643E+00  7.4160887673E+00
                       2.0538509643E+00  0.0000000000E+00  7.3843303361E+00
                       0.0000000000E+00  2.0538509643E+00  4.6982308288E+00
                       2.0538509643E+00  0.0000000000E+00  1.0679799326E+01
                       0.0000000000E+00  2.0538509643E+00  1.3669804283E+01
                       2.0538509643E+00  2.0538509643E+00  1.2174810973E+01
                       0.0000000000E+00  0.0000000000E+00  1.2174810973E+01
            xcart      3.8812158402E+00  0.0000000000E+00  8.8183548382E+00
                       0.0000000000E+00  3.8812158402E+00  1.4014376747E+01
                       3.8812158402E+00  0.0000000000E+00  1.3954362010E+01
                       0.0000000000E+00  3.8812158402E+00  8.8783695756E+00
                       3.8812158402E+00  0.0000000000E+00  2.0181895881E+01
                       0.0000000000E+00  3.8812158402E+00  2.5832186386E+01
                       3.8812158402E+00  3.8812158402E+00  2.3007058458E+01
                       0.0000000000E+00  0.0000000000E+00  2.3007058458E+01
             xred      5.0000000000E-01  0.0000000000E+00  2.5449400000E-01
                       0.0000000000E+00  5.0000000000E-01  4.0444900000E-01
                       5.0000000000E-01  0.0000000000E+00  4.0271700000E-01
                       0.0000000000E+00  5.0000000000E-01  2.5622600000E-01
                       5.0000000000E-01  0.0000000000E+00  5.8244100000E-01
                       0.0000000000E+00  5.0000000000E-01  7.4550600000E-01
                       5.0000000000E-01  5.0000000000E-01  6.6397400000E-01
                       0.0000000000E+00  0.0000000000E+00  6.6397400000E-01
            znucl       50.00000   34.00000   30.00000

================================================================================


- Timing analysis has been suppressed with timopt=0



================================================================================

 Suggested references for the acknowledgment of ABINIT usage.

 The users of ABINIT have little formal obligations with respect to the ABINIT group
 (those specified in the GNU General Public License, http://www.gnu.org/copyleft/gpl.txt).
 However, it is common practice in the scientific literature,
 to acknowledge the efforts of people that have made the research possible.
 In this spirit, please find below suggested citations of work written by ABINIT developers,
 corresponding to implementations inside of ABINIT that you have used in the present run.
 Note also that it will be of great value to readers of publications presenting these results,
 to read papers enabling them to understand the theoretical formalism and details
 of the ABINIT implementation.
 For information on why they are suggested, see also https://docs.abinit.org/theory/acknowledgments.
-
- [1] The Abinit project: Impact, environment and recent developments.
- Computer Phys. Comm. 248, 107042 (2020).
- X.Gonze, B. Amadon, G. Antonius, F.Arnardi, L.Baguet, J.-M.Beuken,
- J.Bieder, F.Bottin, J.Bouchet, E.Bousquet, N.Brouwer, F.Bruneval,
- G.Brunin, T.Cavignac, J.-B. Charraud, Wei Chen, M.Cote, S.Cottenier,
- J.Denier, G.Geneste, Ph.Ghosez, M.Giantomassi, Y.Gillet, O.Gingras,
- D.R.Hamann, G.Hautier, Xu He, N.Helbig, N.Holzwarth, Y.Jia, F.Jollet,
- W.Lafargue-Dit-Hauret, K.Lejaeghere, M.A.L.Marques, A.Martin, C.Martins,
- H.P.C. Miranda, F.Naccarato, K. Persson, G.Petretto, V.Planes, Y.Pouillon,
- S.Prokhorenko, F.Ricci, G.-M.Rignanese, A.H.Romero, M.M.Schmitt, M.Torrent,
- M.J.van Setten, B.Van Troeye, M.J.Verstraete, G.Zerah and J.W.Zwanzig
- Comment: the fifth generic paper describing the ABINIT project.
- Note that a version of this paper, that is not formatted for Computer Phys. Comm. 
- is available at https://www.abinit.org/sites/default/files/ABINIT20.pdf .
- The licence allows the authors to put it on the Web.
- DOI and bibtex: see https://docs.abinit.org/theory/bibliography/#gonze2020
-
- [2] First-principles responses of solids to atomic displacements and homogeneous electric fields:,
- implementation of a conjugate-gradient algorithm. X. Gonze, Phys. Rev. B55, 10337 (1997).
- Comment: Non-vanishing rfphon and/or rfelfd, in the norm-conserving case.
- DOI and bibtex: see https://docs.abinit.org/theory/bibliography/#gonze1997
-
- [3] Dynamical matrices, Born effective charges, dielectric permittivity tensors, and ,
- interatomic force constants from density-functional perturbation theory,
- X. Gonze and C. Lee, Phys. Rev. B55, 10355 (1997).
- Comment: Non-vanishing rfphon and/or rfelfd, in the norm-conserving case.
- DOI and bibtex: see https://docs.abinit.org/theory/bibliography/#gonze1997a
-
- [4] Optimized norm-conserving Vanderbilt pseudopotentials.
- D.R. Hamann, Phys. Rev. B 88, 085117 (2013).
- Comment: Some pseudopotential generated using the ONCVPSP code were used.
- DOI and bibtex: see https://docs.abinit.org/theory/bibliography/#hamann2013
-
- [5] ABINIT: Overview, and focus on selected capabilities
- J. Chem. Phys. 152, 124102 (2020).
- A. Romero, D.C. Allan, B. Amadon, G. Antonius, T. Applencourt, L.Baguet,
- J.Bieder, F.Bottin, J.Bouchet, E.Bousquet, F.Bruneval,
- G.Brunin, D.Caliste, M.Cote,
- J.Denier, C. Dreyer, Ph.Ghosez, M.Giantomassi, Y.Gillet, O.Gingras,
- D.R.Hamann, G.Hautier, F.Jollet, G. Jomard,
- A.Martin, 
- H.P.C. Miranda, F.Naccarato, G.Petretto, N.A. Pike, V.Planes,
- S.Prokhorenko, T. Rangel, F.Ricci, G.-M.Rignanese, M.Royo, M.Stengel, M.Torrent,
- M.J.van Setten, B.Van Troeye, M.J.Verstraete, J.Wiktor, J.W.Zwanziger, and X.Gonze.
- Comment: a global overview of ABINIT, with focus on selected capabilities .
- Note that a version of this paper, that is not formatted for J. Chem. Phys 
- is available at https://www.abinit.org/sites/default/files/ABINIT20_JPC.pdf .
- The licence allows the authors to put it on the Web.
- DOI and bibtex: see https://docs.abinit.org/theory/bibliography/#romero2020
-
- [6] Recent developments in the ABINIT software package.
- Computer Phys. Comm. 205, 106 (2016).
- X.Gonze, F.Jollet, F.Abreu Araujo, D.Adams, B.Amadon, T.Applencourt,
- C.Audouze, J.-M.Beuken, J.Bieder, A.Bokhanchuk, E.Bousquet, F.Bruneval
- D.Caliste, M.Cote, F.Dahm, F.Da Pieve, M.Delaveau, M.Di Gennaro,
- B.Dorado, C.Espejo, G.Geneste, L.Genovese, A.Gerossier, M.Giantomassi,
- Y.Gillet, D.R.Hamann, L.He, G.Jomard, J.Laflamme Janssen, S.Le Roux,
- A.Levitt, A.Lherbier, F.Liu, I.Lukacevic, A.Martin, C.Martins,
- M.J.T.Oliveira, S.Ponce, Y.Pouillon, T.Rangel, G.-M.Rignanese,
- A.H.Romero, B.Rousseau, O.Rubel, A.A.Shukri, M.Stankovski, M.Torrent,
- M.J.Van Setten, B.Van Troeye, M.J.Verstraete, D.Waroquier, J.Wiktor,
- B.Xu, A.Zhou, J.W.Zwanziger.
- Comment: the fourth generic paper describing the ABINIT project.
- Note that a version of this paper, that is not formatted for Computer Phys. Comm. 
- is available at https://www.abinit.org/sites/default/files/ABINIT16.pdf .
- The licence allows the authors to put it on the Web.
- DOI and bibtex: see https://docs.abinit.org/theory/bibliography/#gonze2016
-
- Proc.   0 individual time (sec): cpu=       3250.6  wall=       3250.8

================================================================================

 Calculation completed.
.Delivered   6 WARNINGs and   0 COMMENTs to log file.
+Overall time at end (sec) : cpu=      19504.1  wall=      19504.6
