  ABINIT 9.2.2
  
 DeprecationWarning: 

     The files file has been deprecated in Abinit9 and will be removed in Abinit10.
     Use the syntax `abinit t01.abi` where t01.abi is an input with pseudopotenials.

            pseudos = "al.psp8, as.psp8"


  Give name for formatted input file: 
Cs2TiI6.in
  Give name for formatted output file:
Cs2TiI6.out
  Give root name for generic input files:
Cs2TiI6i
  Give root name for generic output files:
Cs2TiI6o
  Give root name for generic temporary files:
Cs2TiI6

.Version 9.2.2 of ABINIT 
.(MPI version, prepared for a x86_64_linux_gnu9.3 computer) 

.Copyright (C) 1998-2020 ABINIT group . 
 ABINIT comes with ABSOLUTELY NO WARRANTY.
 It is free software, and you are welcome to redistribute it
 under certain conditions (GNU General Public License,
 see ~abinit/COPYING or http://www.gnu.org/copyleft/gpl.txt).

 ABINIT is a project of the Universite Catholique de Louvain,
 Corning Inc. and other collaborators, see ~abinit/doc/developers/contributors.txt .
 Please read https://docs.abinit.org/theory/acknowledgments for suggested
 acknowledgments of the ABINIT effort.
 For more information, see https://www.abinit.org .

.Starting date : Sat 16 Mar 2024.
- ( at 17h47 )
  
- The starting date is more than 3 years after the initial release
- of this version of ABINIT, namely Nov 2020.
- This version of ABINIT is not supported anymore.
- Action: please, switch to a more recent version of ABINIT.

 ++++++++++++++++++++++++++++++++++++++++++++++++++++++++++++++++++++++++++++++

 === Build Information === 
  Version       : 9.2.2
  Build target  : x86_64_linux_gnu9.3
  Build date    : 20210501

 === Compiler Suite === 
  C compiler       : gnu9.3
  C++ compiler     : generic0.0
  Fortran compiler : gnu9.3
  CFLAGS           : -g -O2 -mtune=native -march=native
  CXXFLAGS         : 
  FCFLAGS          : -g -ffree-line-length-none
  FC_LDFLAGS       : 

 === Optimizations === 
  Debug level        : basic
  Optimization level : standard
  Architecture       : unknown_unknown

 === Multicore === 
  Parallel build : yes
  Parallel I/O   : yes
  openMP support : 
  GPU support    : 

 === Connectors / Fallbacks === 
  LINALG flavor  : netlib
  FFT flavor     : goedecker
  HDF5           : yes
  NetCDF         : yes
  NetCDF Fortran : yes
  LibXC          : yes
  Wannier90      : no

 === Experimental features === 
  Exports             : 
  GW double-precision : 

 ++++++++++++++++++++++++++++++++++++++++++++++++++++++++++++++++++++++++++++++


 ++++++++++++++++++++++++++++++++++++++++++++++++++++++++++++++++++++++++++++++
 Default optimizations:
   -O2 -mtune=native -march=native


 Optimizations for 43_ptgroups:
   -O0


 ++++++++++++++++++++++++++++++++++++++++++++++++++++++++++++++++++++++++++++++


 ++++++++++++++++++++++++++++++++++++++++++++++++++++++++++++++++++++++++++++++
 CPP options activated during the build:

                    CC_GNU                    FC_GNU HAVE_FC_ALLOCATABLE_DT...
 
             HAVE_FC_ASYNC         HAVE_FC_BACKTRACE  HAVE_FC_COMMAND_ARGUMENT
 
      HAVE_FC_COMMAND_LINE        HAVE_FC_CONTIGUOUS           HAVE_FC_CPUTIME
 
              HAVE_FC_EXIT             HAVE_FC_FLUSH             HAVE_FC_GAMMA
 
            HAVE_FC_GETENV   HAVE_FC_IEEE_ARITHMETIC   HAVE_FC_IEEE_EXCEPTIONS
 
          HAVE_FC_INT_QUAD             HAVE_FC_IOMSG     HAVE_FC_ISO_C_BINDING
 
  HAVE_FC_ISO_FORTRAN_2008        HAVE_FC_LONG_LINES        HAVE_FC_MOVE_ALLOC
 
  HAVE_FC_ON_THE_FLY_SHAPE           HAVE_FC_PRIVATE         HAVE_FC_PROTECTED
 
           HAVE_FC_SHIFTLR         HAVE_FC_STREAM_IO            HAVE_FC_SYSTEM
 
          HAVE_FORTRAN2003                 HAVE_HDF5        HAVE_LIBPAW_ABINIT
 
      HAVE_LIBTETRA_ABINIT                HAVE_LIBXC                  HAVE_MPI
 
                 HAVE_MPI2       HAVE_MPI_IALLGATHER       HAVE_MPI_IALLREDUCE
 
        HAVE_MPI_IALLTOALL       HAVE_MPI_IALLTOALLV           HAVE_MPI_IBCAST
 
         HAVE_MPI_IGATHERV        HAVE_MPI_INTEGER16               HAVE_MPI_IO
 
 HAVE_MPI_TYPE_CREATE_S...               HAVE_NETCDF       HAVE_NETCDF_FORTRAN
 
             HAVE_OS_LINUX         HAVE_TIMER_ABINIT                            
 ++++++++++++++++++++++++++++++++++++++++++++++++++++++++++++++++++++++++++++++

- input  file    -> Cs2TiI6.in
- output file    -> Cs2TiI6.out
- root for input  files -> Cs2TiI6i
- root for output files -> Cs2TiI6o

-instrng: 64 lines of input have been read from file Cs2TiI6.in


 Please give name of formatted atomic psp file (and finish with a newline character)
 For atom type 1, psp file is ../../../Psps_for_tests/ATOMICDATA_NC/Sn.psp8

 Please give name of formatted atomic psp file (and finish with a newline character)
 For atom type 2, psp file is ../../../Psps_for_tests/ATOMICDATA_NC/Se.psp8

 Please give name of formatted atomic psp file (and finish with a newline character)
 For atom type 3, psp file is ../../../Psps_for_tests/ATOMICDATA_NC/Zn.psp8
  read the values zionpsp= 14.0 , pspcod=   8 , lmax=   2
  read the values zionpsp= 16.0 , pspcod=   8 , lmax=   2
  read the values zionpsp= 20.0 , pspcod=   8 , lmax=   2

 inpspheads: deduce mpsang = 3, n1xccc = 2501.

======================================================= 
 invars1m : enter jdtset= 1

 symlatt: the Bravais lattice is tP (primitive tetragonal)
  xred   is defined in input file
 ingeo: takes atomic coordinates from input array xred

--- !WARNING
src_file: m_ingeo.F90
src_line: 887
message: |
    The tolerance on symmetries =   1.000E-05 is bigger than 1.0e-8.
    In order to avoid spurious effects, the atomic coordinates have been
    symmetrized before storing them in the dataset internal variable.
    So, do not be surprised by the fact that your input variables (xcart, xred, ...)
    do not correspond to the ones echoed by ABINIT, the latter being used to do the calculations.
    In order to avoid this symmetrization (e.g. for specific debugging/development), decrease tolsym to 1.0e-8 or lower.
...


 symlatt: the Bravais lattice is tP (primitive tetragonal)

 symlatt: the Bravais lattice is tP (primitive tetragonal)
 symspgr: spgroup=  99  P4 m m   (=C4v^1)
 symspgr: optical characteristics = uniaxial
 Optical axis (in reduced coordinates, real space ) :   0   0   1

======================================================= 
 invars1m : enter jdtset= 2

 symlatt: the Bravais lattice is tP (primitive tetragonal)
  xred   is defined in input file
 ingeo: takes atomic coordinates from input array xred

--- !WARNING
src_file: m_ingeo.F90
src_line: 887
message: |
    The tolerance on symmetries =   1.000E-05 is bigger than 1.0e-8.
    In order to avoid spurious effects, the atomic coordinates have been
    symmetrized before storing them in the dataset internal variable.
    So, do not be surprised by the fact that your input variables (xcart, xred, ...)
    do not correspond to the ones echoed by ABINIT, the latter being used to do the calculations.
    In order to avoid this symmetrization (e.g. for specific debugging/development), decrease tolsym to 1.0e-8 or lower.
...


 symlatt: the Bravais lattice is tP (primitive tetragonal)

 symlatt: the Bravais lattice is tP (primitive tetragonal)
 symspgr: spgroup=  99  P4 m m   (=C4v^1)
 symspgr: optical characteristics = uniaxial
 Optical axis (in reduced coordinates, real space ) :   0   0   1

======================================================= 
 invars1m : enter jdtset= 3

 symlatt: the Bravais lattice is tP (primitive tetragonal)
  xred   is defined in input file
 ingeo: takes atomic coordinates from input array xred

--- !WARNING
src_file: m_ingeo.F90
src_line: 887
message: |
    The tolerance on symmetries =   1.000E-05 is bigger than 1.0e-8.
    In order to avoid spurious effects, the atomic coordinates have been
    symmetrized before storing them in the dataset internal variable.
    So, do not be surprised by the fact that your input variables (xcart, xred, ...)
    do not correspond to the ones echoed by ABINIT, the latter being used to do the calculations.
    In order to avoid this symmetrization (e.g. for specific debugging/development), decrease tolsym to 1.0e-8 or lower.
...


 symlatt: the Bravais lattice is tP (primitive tetragonal)

 symlatt: the Bravais lattice is tP (primitive tetragonal)
 symspgr: spgroup=  99  P4 m m   (=C4v^1)
 symspgr: optical characteristics = uniaxial
 Optical axis (in reduced coordinates, real space ) :   0   0   1

--- !WARNING
src_file: m_mpinfo.F90
src_line: 2281
message: |
    nkpt*nsppol (10) is not a multiple of nproc_kpt (6)
    The k-point parallelisation is inefficient. (Ignore this warning if this is not a GS run)
...

 For input ecut=  2.250000E+01 best grid ngfft=      36      36     180
       max ecut=  2.547868E+01

 ==== FFT mesh ====
  FFT mesh divisions ........................    36   36  180
  Augmented FFT divisions ...................    37   37  180
  FFT algorithm .............................   112
  FFT cache size ............................    16
 getmpw: optimal value of mpw= 12200

--- !WARNING
src_file: m_mpinfo.F90
src_line: 2281
message: |
    nkpt*nsppol (57) is not a multiple of nproc_kpt (6)
    The k-point parallelisation is inefficient. (Ignore this warning if this is not a GS run)
...

 For input ecut=  2.250000E+01 best grid ngfft=      36      36     180
       max ecut=  2.547868E+01

 ==== FFT mesh ====
  FFT mesh divisions ........................    36   36  180
  Augmented FFT divisions ...................    37   37  180
  FFT algorithm .............................   112
  FFT cache size ............................    16
 getmpw: optimal value of mpw= 12240

--- !WARNING
src_file: m_mpinfo.F90
src_line: 2281
message: |
    nkpt*nsppol (10) is not a multiple of nproc_kpt (6)
    The k-point parallelisation is inefficient. (Ignore this warning if this is not a GS run)
...

 For input ecut=  2.250000E+01 best grid ngfft=      36      36     180
       max ecut=  2.547868E+01

 ==== FFT mesh ====
  FFT mesh divisions ........................    36   36  180
  Augmented FFT divisions ...................    37   37  180
  FFT algorithm .............................   112
  FFT cache size ............................    16
 getmpw: optimal value of mpw= 12200

 DATASET    1 : space group P4 m m (# 99); Bravais tP (primitive tetrag.)

 getdim_nloc : deduce lmnmax  =  18, lnmax  =   6,
                      lmnmaxso=  18, lnmaxso=   6.
memory: analysis of memory needs
================================================================================
 Values of the parameters that define the memory need for DATASET  1.
     intxc =       0    ionmov =       0      iscf =      17    lmnmax =       6
     lnmax =       6     mgfft =     180  mpssoang =       3    mqgrid =    8458
     natom =      10  nloc_mem =       1    nspden =       1   nspinor =       1
    nsppol =       1      nsym =       8    n1xccc =    2501    ntypat =       3
    occopt =       1   xclevel =       2
-    mband =          90        mffmem =           1         mkmem =           2
       mpw =       12200          nfft =      233280          nkpt =          10
================================================================================
P This job should need less than                     117.732 Mbytes of memory.
  Rough estimation (10% accuracy) of disk space for files :
_ WF disk file :    167.544 Mbytes ; DEN or POT disk file :      1.782 Mbytes.
================================================================================

 Biggest array : cg(disk), with     33.5103 MBytes.
 memana : allocated an array of     33.510 Mbytes, for testing purposes.
 memana: allocated     117.732Mbytes, for testing purposes. 
 The job will continue.

 DATASET    2 : space group P4 m m (# 99); Bravais tP (primitive tetrag.)

 getdim_nloc : deduce lmnmax  =  18, lnmax  =   6,
                      lmnmaxso=  18, lnmaxso=   6.
memory: analysis of memory needs
================================================================================
 Values of the parameters that define the memory need for DATASET  2.
     intxc =       0    ionmov =       0      iscf =      -2    lmnmax =       6
     lnmax =       6     mgfft =     180  mpssoang =       3    mqgrid =    8458
     natom =      10  nloc_mem =       1    nspden =       1   nspinor =       1
    nsppol =       1      nsym =       8    n1xccc =    2501    ntypat =       3
    occopt =       1   xclevel =       2
-    mband =          90        mffmem =           1         mkmem =          10
       mpw =       12240          nfft =      233280          nkpt =          57
================================================================================
P This job should need less than                     217.938 Mbytes of memory.
  Rough estimation (10% accuracy) of disk space for files :
_ WF disk file :    958.120 Mbytes ; DEN or POT disk file :      1.782 Mbytes.
================================================================================

 Biggest array : cg(disk), with    168.0928 MBytes.
 memana : allocated an array of    168.093 Mbytes, for testing purposes.
 memana: allocated     217.938Mbytes, for testing purposes. 
 The job will continue.

 DATASET    3 : space group P4 m m (# 99); Bravais tP (primitive tetrag.)

 getdim_nloc : deduce lmnmax  =  18, lnmax  =   6,
                      lmnmaxso=  18, lnmaxso=   6.
memory: analysis of memory needs
================================================================================
 Values of the parameters that define the memory need for DATASET  3.
     intxc =       0    ionmov =       0      iscf =      -3    lmnmax =       6
     lnmax =       6     mgfft =     180  mpssoang =       3    mqgrid =    8458
     natom =      10  nloc_mem =       1    nspden =       1   nspinor =       1
    nsppol =       1      nsym =       8    n1xccc =    2501    ntypat =       3
    occopt =       1   xclevel =       2
-    mband =          90        mffmem =           1         mkmem =           2
       mpw =       12200          nfft =      233280          nkpt =          10
================================================================================
P This job should need less than                      82.137 Mbytes of memory.
  Rough estimation (10% accuracy) of disk space for files :
_ WF disk file :    167.544 Mbytes ; DEN or POT disk file :      1.782 Mbytes.
================================================================================

 Biggest array : cg(disk), with     33.5103 MBytes.
 memana : allocated an array of     33.510 Mbytes, for testing purposes.
 memana: allocated      82.137Mbytes, for testing purposes. 
 The job will continue.
--------------------------------------------------------------------------------
------------- Echo of variables that govern the present computation ------------
--------------------------------------------------------------------------------
-
- outvars: echo of selected default values                                      
-   iomode0 =  0 , fftalg0 =112 , wfoptalg0 =  0
-
- outvars: echo of global parameters not present in the input file              
-  max_nthreads =    0
-
 -outvars: echo values of preprocessed input variables --------
 
 These variables are accessible in NetCDF format (Cs2TiI6o_OUT.nc)

            acell      7.7624316804E+00  7.7624316804E+00  7.7624316804E+00 Bohr
              amu      1.18710000E+02  7.89600000E+01  6.53900000E+01
           diemac      1.20000000E+01
        dosdeltae1     0.00000000E+00 Hartree
        dosdeltae2     0.00000000E+00 Hartree
        dosdeltae3     1.00000000E-03 Hartree
             ecut      2.25000000E+01 Hartree
-          fftalg         112
           getden1          0
           getden2          1
           getden3          1
           getwfk1          0
           getwfk2          0
           getwfk3          1
           iatsph3       1    4    8    9
             iscf1         17
             iscf2         -2
             iscf3         -3
           istwfk2       7    0    0    0    0    0    0    0    0    0
                         4    0    0    0    0    0    0    0    0    0
                         0    0    2    0    0    0    0    0    0    0
                         0    0    0    0    0    0    0    0    0    0
                         9    0    0    0    0    0    0    0    8    0
              ixc     -101130
           jdtset        1    2    3
              kpt1     6.25000000E-02  6.25000000E-02  5.00000000E-01
                       1.87500000E-01  6.25000000E-02  5.00000000E-01
                       3.12500000E-01  6.25000000E-02  5.00000000E-01
                       4.37500000E-01  6.25000000E-02  5.00000000E-01
                       1.87500000E-01  1.87500000E-01  5.00000000E-01
                       3.12500000E-01  1.87500000E-01  5.00000000E-01
                       4.37500000E-01  1.87500000E-01  5.00000000E-01
                       3.12500000E-01  3.12500000E-01  5.00000000E-01
                       4.37500000E-01  3.12500000E-01  5.00000000E-01
                       4.37500000E-01  4.37500000E-01  5.00000000E-01
              kpt2     5.00000000E-01  5.00000000E-01  0.00000000E+00
                       4.50000000E-01  4.50000000E-01  5.00000000E-02
                       4.00000000E-01  4.00000000E-01  1.00000000E-01
                       3.50000000E-01  3.50000000E-01  1.50000000E-01
                       3.00000000E-01  3.00000000E-01  2.00000000E-01
                       2.50000000E-01  2.50000000E-01  2.50000000E-01
                       2.00000000E-01  2.00000000E-01  3.00000000E-01
                       1.50000000E-01  1.50000000E-01  3.50000000E-01
                       1.00000000E-01  1.00000000E-01  4.00000000E-01
                       5.00000000E-02  5.00000000E-02  4.50000000E-01
                       0.00000000E+00  0.00000000E+00  5.00000000E-01
                       0.00000000E+00  0.00000000E+00  4.58333333E-01
                       0.00000000E+00  0.00000000E+00  4.16666667E-01
                       0.00000000E+00  0.00000000E+00  3.75000000E-01
                       0.00000000E+00  0.00000000E+00  3.33333333E-01
                       0.00000000E+00  0.00000000E+00  2.91666667E-01
                       0.00000000E+00  0.00000000E+00  2.50000000E-01
                       0.00000000E+00  0.00000000E+00  2.08333333E-01
                       0.00000000E+00  0.00000000E+00  1.66666667E-01
                       0.00000000E+00  0.00000000E+00  1.25000000E-01
                       0.00000000E+00  0.00000000E+00  8.33333333E-02
                       0.00000000E+00  0.00000000E+00  4.16666667E-02
                       0.00000000E+00  0.00000000E+00  0.00000000E+00
                       2.77777778E-02  2.77777778E-02  2.77777778E-02
                       5.55555556E-02  5.55555556E-02  5.55555556E-02
                       8.33333333E-02  8.33333333E-02  8.33333333E-02
                       1.11111111E-01  1.11111111E-01  1.11111111E-01
                       1.38888889E-01  1.38888889E-01  1.38888889E-01
                       1.66666667E-01  1.66666667E-01  1.66666667E-01
                       1.94444444E-01  1.94444444E-01  1.94444444E-01
                       2.22222222E-01  2.22222222E-01  2.22222222E-01
                       2.50000000E-01  2.50000000E-01  2.50000000E-01
                       2.77777778E-01  2.77777778E-01  2.77777778E-01
                       3.05555556E-01  3.05555556E-01  3.05555556E-01
                       3.33333333E-01  3.33333333E-01  3.33333333E-01
                       3.61111111E-01  3.61111111E-01  3.61111111E-01
                       3.88888889E-01  3.88888889E-01  3.88888889E-01
                       4.16666667E-01  4.16666667E-01  4.16666667E-01
                       4.44444444E-01  4.44444444E-01  4.44444444E-01
                       4.72222222E-01  4.72222222E-01  4.72222222E-01
                       5.00000000E-01  5.00000000E-01  5.00000000E-01
                       4.37500000E-01  5.00000000E-01  5.00000000E-01
                       3.75000000E-01  5.00000000E-01  5.00000000E-01
                       3.12500000E-01  5.00000000E-01  5.00000000E-01
                       2.50000000E-01  5.00000000E-01  5.00000000E-01
                       1.87500000E-01  5.00000000E-01  5.00000000E-01
                       1.25000000E-01  5.00000000E-01  5.00000000E-01
                       6.25000000E-02  5.00000000E-01  5.00000000E-01
                       0.00000000E+00  5.00000000E-01  5.00000000E-01
                       0.00000000E+00  5.00000000E-01  4.37500000E-01
              kpt3     6.25000000E-02  6.25000000E-02  5.00000000E-01
                       1.87500000E-01  6.25000000E-02  5.00000000E-01
                       3.12500000E-01  6.25000000E-02  5.00000000E-01
                       4.37500000E-01  6.25000000E-02  5.00000000E-01
                       1.87500000E-01  1.87500000E-01  5.00000000E-01
                       3.12500000E-01  1.87500000E-01  5.00000000E-01
                       4.37500000E-01  1.87500000E-01  5.00000000E-01
                       3.12500000E-01  3.12500000E-01  5.00000000E-01
                       4.37500000E-01  3.12500000E-01  5.00000000E-01
                       4.37500000E-01  4.37500000E-01  5.00000000E-01
                       outvar_i_n : Printing only first  50 k-points.
           kptopt1          1
           kptopt2         -5
           kptopt3          1
         kptrlatt        8    0    0      0    8    0      0    0    1
          kptrlen1     6.20994534E+01
          kptrlen2     3.00000000E+01
          kptrlen3     6.20994534E+01
P           mkmem1          2
P           mkmem2         10
P           mkmem3          2
            natom          10
           natsph3       4
            nband1         90
            nband2         90
            nband3         90
           nbdbuf1          0
           nbdbuf2          2
           nbdbuf3          2
           ndtset           3
            ngfft          36      36     180
             nkpt1         10
             nkpt2         57
             nkpt3         10
            nstep1       1000
            nstep2        300
            nstep3        300
             nsym           8
           ntypat           3
              occ      2.000000  2.000000  2.000000  2.000000  2.000000  2.000000
                       2.000000  2.000000  2.000000  2.000000  2.000000  2.000000
                       2.000000  2.000000  2.000000  2.000000  2.000000  2.000000
                       2.000000  2.000000  2.000000  2.000000  2.000000  2.000000
                       2.000000  2.000000  2.000000  2.000000  2.000000  2.000000
                       2.000000  2.000000  2.000000  2.000000  2.000000  2.000000
                       2.000000  2.000000  2.000000  2.000000  2.000000  2.000000
                       2.000000  2.000000  2.000000  2.000000  2.000000  2.000000
                       2.000000  2.000000  2.000000  2.000000  2.000000  2.000000
                       2.000000  2.000000  2.000000  2.000000  2.000000  2.000000
                       2.000000  2.000000  2.000000  2.000000  2.000000  2.000000
                       2.000000  2.000000  2.000000  2.000000  2.000000  2.000000
                       2.000000  2.000000  2.000000  2.000000  2.000000  2.000000
                       2.000000  2.000000  2.000000  0.000000  0.000000  0.000000
                       0.000000  0.000000  0.000000  0.000000  0.000000  0.000000
           prtcif           1
           prtdos1          0
           prtdos2          0
           prtdos3          3
            rprim      1.0000000000E+00  0.0000000000E+00  0.0000000000E+00
                       0.0000000000E+00  1.0000000000E+00  0.0000000000E+00
                       0.0000000000E+00  0.0000000000E+00  5.1025955632E+00
           shiftk      5.00000000E-01  5.00000000E-01  5.00000000E-01
          spgroup          99
           symrel      1  0  0   0  1  0   0  0  1       1  0  0   0 -1  0   0  0  1
                      -1  0  0   0 -1  0   0  0  1      -1  0  0   0  1  0   0  0  1
                       0  1  0   1  0  0   0  0  1       0  1  0  -1  0  0   0  0  1
                       0 -1  0  -1  0  0   0  0  1       0 -1  0   1  0  0   0  0  1
            tnons      0.0000000  0.0000000  0.0000000     0.0000000 -0.0000000  0.0000000
                      -0.0000000 -0.0000000  0.0000000    -0.0000000  0.0000000  0.0000000
                       0.5000000  0.5000000  0.0000000     0.5000000  0.5000000  0.0000000
                       0.5000000  0.5000000  0.0000000     0.5000000  0.5000000  0.0000000
           tolwfr      1.00000000E-20
            typat      1  1  1  2  2  2  2  2  3  3
           vdw_xc           5
              wtk1       0.06250    0.12500    0.12500    0.12500    0.06250    0.12500
                         0.12500    0.06250    0.12500    0.06250
              wtk2       1.00000    1.00000    1.00000    1.00000    1.00000    1.00000
                         1.00000    1.00000    1.00000    1.00000    1.00000    1.00000
                         1.00000    1.00000    1.00000    1.00000    1.00000    1.00000
                         1.00000    1.00000    1.00000    1.00000    1.00000    1.00000
                         1.00000    1.00000    1.00000    1.00000    1.00000    1.00000
                         1.00000    1.00000    1.00000    1.00000    1.00000    1.00000
                         1.00000    1.00000    1.00000    1.00000    1.00000    1.00000
                         1.00000    1.00000    1.00000    1.00000    1.00000    1.00000
                         1.00000    1.00000
              wtk3       0.06250    0.12500    0.12500    0.12500    0.06250    0.12500
                         0.12500    0.06250    0.12500    0.06250
                       outvars : Printing only first  50 k-points.
           xangst      2.0538509643E+00  0.0000000000E+00  4.6664585258E+00
                       0.0000000000E+00  2.0538509643E+00  7.4160884693E+00
                       2.0538509643E+00  0.0000000000E+00  1.0102188830E+01
                       0.0000000000E+00  2.0538509643E+00  4.6982337974E+00
                       2.0538509643E+00  0.0000000000E+00  7.3843341577E+00
                       0.0000000000E+00  2.0538509643E+00  1.0133964101E+01
                       2.0538509643E+00  0.0000000000E+00  1.3303463595E+01
                       0.0000000000E+00  2.0538509643E+00  1.6293483109E+01
                       2.0538509643E+00  2.0538509643E+00  1.4798473352E+01
                       0.0000000000E+00  0.0000000000E+00  1.4798473352E+01
            xcart      3.8812158402E+00  0.0000000000E+00  8.8183286243E+00
                       0.0000000000E+00  3.8812158402E+00  1.4014376184E+01
                       3.8812158402E+00  0.0000000000E+00  1.9090370231E+01
                       0.0000000000E+00  3.8812158402E+00  8.8783751853E+00
                       3.8812158402E+00  0.0000000000E+00  1.3954369232E+01
                       0.0000000000E+00  3.8812158402E+00  1.9150416792E+01
                       3.8812158402E+00  0.0000000000E+00  2.5139902814E+01
                       0.0000000000E+00  3.8812158402E+00  3.0790220828E+01
                       3.8812158402E+00  3.8812158402E+00  2.7965061821E+01
                       0.0000000000E+00  0.0000000000E+00  2.7965061821E+01
             xred      5.0000000000E-01  0.0000000000E+00  2.2263700000E-01
                       0.0000000000E+00  5.0000000000E-01  3.5382200000E-01
                       5.0000000000E-01  0.0000000000E+00  4.8197600000E-01
                       0.0000000000E+00  5.0000000000E-01  2.2415300000E-01
                       5.0000000000E-01  0.0000000000E+00  3.5230700000E-01
                       0.0000000000E+00  5.0000000000E-01  4.8349200000E-01
                       5.0000000000E-01  0.0000000000E+00  6.3470900000E-01
                       0.0000000000E+00  5.0000000000E-01  7.7736300000E-01
                       5.0000000000E-01  5.0000000000E-01  7.0603600000E-01
                       0.0000000000E+00  0.0000000000E+00  7.0603600000E-01
            znucl       50.00000   34.00000   30.00000

================================================================================

 chkinp: Checking input parameters for consistency, jdtset=   1.

 chkinp: Checking input parameters for consistency, jdtset=   2.

 chkinp: Checking input parameters for consistency, jdtset=   3.
 DATA TYPE INFORMATION: 
 REAL:      Data type name: REAL(DP) 
            Kind value:      8
            Precision:      15
            Smallest nonnegligible quantity relative to 1: 0.22204460E-015
            Smallest positive number:                      0.22250739E-307
            Largest representable number:                  0.17976931E+309
 INTEGER:   Data type name: INTEGER(default) 
            Kind value: 4
            Bit size:   32
            Largest representable number: 2147483647
 LOGICAL:   Data type name: LOGICAL 
            Kind value: 4
 CHARACTER: Data type name: CHARACTER             Kind value: 1

  ==== OpenMP parallelism is OFF ====
 
  ==== Using MPI-2 specifications ==== 
  MPI-IO support is ON
  xmpi_tag_ub ................   2147483647
  xmpi_bsize_ch ..............            1
  xmpi_bsize_int .............            4
  xmpi_bsize_sp ..............            4
  xmpi_bsize_dp ..............            8
  xmpi_bsize_spc .............            8
  xmpi_bsize_dpc .............           16
  xmpio_bsize_frm ............            4
  xmpi_address_kind ..........            8
  xmpi_offset_kind ...........            8
  MPI_WTICK ..................    1.0000000000000001E-009

================================================================================
== DATASET  1 ==================================================================
-   mpi_nproc: 6, omp_nthreads: -1 (-1 if OMP is not activated)


--- !COMMENT
src_file: m_xgScalapack.F90
src_line: 236
message: |
    xgScalapack in auto mode
...


 getdim_nloc : deduce lmnmax  =  18, lnmax  =   6,
                      lmnmaxso=  18, lnmaxso=   6.
 Perdew, Burke & Ernzerhof
 J. P. Perdew, K. Burke, and M. Ernzerhof, Phys. Rev. Lett. 77, 3865 (1996)
 J. P. Perdew, K. Burke, and M. Ernzerhof, Phys. Rev. Lett. 78, 1396 (1997)
 Perdew, Burke & Ernzerhof
 J. P. Perdew, K. Burke, and M. Ernzerhof, Phys. Rev. Lett. 77, 3865 (1996)
 J. P. Perdew, K. Burke, and M. Ernzerhof, Phys. Rev. Lett. 78, 1396 (1997)

 Unit cell volume ucvol=  2.3866268E+03 bohr^3
 Angles (23,13,12)=  9.00000000E+01  9.00000000E+01  9.00000000E+01 degrees

 getcut: wavevector=  0.0000  0.0000  0.0000  ngfft=  36  36 180
         ecut(hartree)=     22.500   => boxcut(ratio)=   2.12827
- pspini: atom type   1  psp file is ../../../Psps_for_tests/ATOMICDATA_NC/Sn.psp8
- pspatm: opening atomic psp file    ../../../Psps_for_tests/ATOMICDATA_NC/Sn.psp8
- Sn    ONCVPSP  r_core=  2.27  2.62  1.86
- 50.00000  14.00000    150810                znucl, zion, pspdat
    8   11    2    4       600   0.00000      pspcod,pspxc,lmax,lloc,mmax,r2well

--- !WARNING
src_file: m_pspini.F90
src_line: 1036
message: |
    Pseudopotential file pspxc: 11, not equal to input ixc: -101130.
    These parameters must agree to get the same xc in ABINIT code as in psp construction.
    Action: check psp design or input file.
    Assume experienced user. Execution will continue.
...

    5.99000000000000    6.50000000000000    0.00000000000000   rchrg,fchrg,qchrg
     nproj     2     2     2
     extension_switch     1
  valence charge integrates to:    13.912521222389802     
  pspatm : epsatm=   32.65190642
         --- l  ekb(1:nproj) -->
             0    5.462393    0.682281
             1    4.443814    0.825686
             2   -5.382195   -1.704077
 pspatm: atomic psp has been read  and splines computed

- pspini: atom type   2  psp file is ../../../Psps_for_tests/ATOMICDATA_NC/Se.psp8
- pspatm: opening atomic psp file    ../../../Psps_for_tests/ATOMICDATA_NC/Se.psp8
- Se    ONCVPSP  r_core=  1.82  1.50  1.91
- 34.00000  16.00000    150729                znucl, zion, pspdat
    8   11    2    4       600   0.00000      pspcod,pspxc,lmax,lloc,mmax,r2well

--- !WARNING
src_file: m_pspini.F90
src_line: 1036
message: |
    Pseudopotential file pspxc: 11, not equal to input ixc: -101130.
    These parameters must agree to get the same xc in ABINIT code as in psp construction.
    Action: check psp design or input file.
    Assume experienced user. Execution will continue.
...

    5.99000000000000    5.00000000000000    0.00000000000000   rchrg,fchrg,qchrg
     nproj     2     2     2
     extension_switch     1
  valence charge integrates to:    15.981819523532332     
  pspatm : epsatm=   29.53325930
         --- l  ekb(1:nproj) -->
             0    8.612261    0.939919
             1    6.984962    1.281898
             2   -9.322521   -3.856218
 pspatm: atomic psp has been read  and splines computed

- pspini: atom type   3  psp file is ../../../Psps_for_tests/ATOMICDATA_NC/Zn.psp8
- pspatm: opening atomic psp file    ../../../Psps_for_tests/ATOMICDATA_NC/Zn.psp8
- Zn    ONCVPSP  r_core=  1.36  1.66  1.85
- 30.00000  20.00000    161102                znucl, zion, pspdat
    8   11    2    4       600   0.00000      pspcod,pspxc,lmax,lloc,mmax,r2well

--- !WARNING
src_file: m_pspini.F90
src_line: 1036
message: |
    Pseudopotential file pspxc: 11, not equal to input ixc: -101130.
    These parameters must agree to get the same xc in ABINIT code as in psp construction.
    Action: check psp design or input file.
    Assume experienced user. Execution will continue.
...

    5.99000000000000    2.50000000000000    0.00000000000000   rchrg,fchrg,qchrg
     nproj     2     2     2
     extension_switch     1
  valence charge integrates to:    19.977025053306086     
  pspatm : epsatm=   26.67245340
         --- l  ekb(1:nproj) -->
             0    2.404235   -1.533451
             1   -4.677427   -1.530630
             2   -7.000316   -2.622858
 pspatm: atomic psp has been read  and splines computed

   4.84326415E+04                                ecore*ucvol(ha*bohr**3)
 ==== Info on pseudopotentials ====
  Norm-conserving pseudopotentials
  Number of pseudopotentials ..    3
  Number of types of atoms   ..    3
  Scalar calculation (no spin-orbit term)
  Nonlocal part applied using Legendre polynomials
  Max number of non-local projectors over l and type   2
  Highest angular momentum +1 .......   3
  Max number of (l,n)   components ..   6
  Max number of (l,m,n) components ..   6

 Pseudo-Core Charge Info: 
   Number of radial points for pseudo-core charge .. 2501
   XC core-correction treatment (optnlxccc) ........    1
   Radius for pseudo-core charge for each type ..... 

  - Atom type    1 has pseudo-core radius ..  5.9900
  - Atom type    2 has pseudo-core radius ..  5.9900
  - Atom type    3 has pseudo-core radius ..  5.9900

 Info on the Q-grid used for form factors in spline form: 
   Number of q-points for radial functions ffspl ..   8458
   Number of q-points for vlspl ...................   8458
   vloc is computed in Reciprocal Space
   model core charge treated in real-space

  XC functional for type 1 is 11
  Pseudo valence available: yes
  XC functional for type 2 is 11
  Pseudo valence available: yes
  XC functional for type 3 is 11
  Pseudo valence available: yes

 wfconv:    90 bands initialized randomly with npw= 12200, for ikpt=     1
 wfconv:    90 bands initialized randomly with npw= 12176, for ikpt=     2
_setup2: Arith. and geom. avg. npw (full set) are   12164.875   12164.868
 initro: for itypat=  1, take pseudo charge density from pp file
 initro: for itypat=  2, take pseudo charge density from pp file
 initro: for itypat=  3, take pseudo charge density from pp file

================================================================================

 getcut: wavevector=  0.0000  0.0000  0.0000  ngfft=  36  36 180
         ecut(hartree)=     22.500   => boxcut(ratio)=   2.12827

 1/G**2 cut-off applied in the following step : cutoff-mode = CRYSTAL

  --------------------------------------------------------------
  Van der Waals DFT-D2 semi-empirical dispersion potential added
      with following parameters:
      Specie  C6 (J.nm^6.mol^-1)  R0 (Ang)
      ------------------------------------
         Sn           38.71         1.804
         Se           12.64         1.771
         Zn           10.80         1.562

      Scaling factor   =   0.75
      Damping parameter=  20.00
      Cut-off radius   = 130.92 bohr

      Number of pairs contributing =   216689
      DFT-D2 energy contribution   =   -9.85610E-02 Ha
  --------------------------------------------------------------


 1/G**2 cut-off applied in the following step : cutoff-mode = CRYSTAL

 1/G**2 cut-off applied in the following step : cutoff-mode = CRYSTAL

--- !WARNING
src_file: m_drivexc.F90
src_line: 707
message: |
    Density went too small (lower than xc_denpos) at 17706 points
    and was set to xc_denpos =   1.00E-14. Lowest was  -0.66E-03.
    Likely due to too low boxcut or too low ecut for pseudopotential core charge.
...


 ITER STEP NUMBER     1
 vtorho: nnsclo_now = 2, note that nnsclo, dbl_nnsclo, istep= 0 0 1
 Total charge density [el/Bohr^3]
      Maximum=    3.2731E+00  at reduced coord.    0.5000    0.5556    0.7056
      Minimum=    2.3516E-03  at reduced coord.    0.1389    0.3611    0.9833
   Integrated=    1.6200E+02
 ETOT  1  -1240.7994936227    -1.241E+03 7.024E-01 1.773E+03
 scprqt: <Vxc>= -2.8188145E-01 hartree

 Simple mixing update:
  residual square of the potential:    1157.0722923366850

 1/G**2 cut-off applied in the following step : cutoff-mode = CRYSTAL

--- !WARNING
src_file: m_drivexc.F90
src_line: 707
message: |
    Density went too small (lower than xc_denpos) at 2371 points
    and was set to xc_denpos =   1.00E-14. Lowest was  -0.49E-04.
    Likely due to too low boxcut or too low ecut for pseudopotential core charge.
...

 scfcv_core: previous iteration took 46.44 [s]

 ITER STEP NUMBER     2
 vtorho: nnsclo_now = 2, note that nnsclo, dbl_nnsclo, istep= 0 0 2
 Total charge density [el/Bohr^3]
      Maximum=    5.8394E+00  at reduced coord.    0.5000    0.5556    0.7000
      Minimum=    2.0357E-04  at reduced coord.    0.0000    0.2500    0.1111
   Integrated=    1.6200E+02
 ETOT  2  -1325.6712175645    -8.487E+01 3.803E-01 5.230E+03
 scprqt: <Vxc>= -2.9888320E-01 hartree

 Pulay update with  1 previous iterations:
 mixing of old trial potential: alpha(m:m-4)=  0.390      0.610

--- !WARNING
src_file: m_drivexc.F90
src_line: 707
message: |
    Density went too small (lower than xc_denpos) at 10887 points
    and was set to xc_denpos =   1.00E-14. Lowest was  -0.80E-03.
    Likely due to too low boxcut or too low ecut for pseudopotential core charge.
...

 scfcv_core: previous iteration took 45.38 [s]

 ITER STEP NUMBER     3
 vtorho: nnsclo_now = 1, note that nnsclo, dbl_nnsclo, istep= 0 0 3
 Total charge density [el/Bohr^3]
      Maximum=    3.7744E+00  at reduced coord.    0.0000    0.9444    0.7056
      Minimum=    1.2156E-03  at reduced coord.    0.0000    0.5000    0.9667
   Integrated=    1.6200E+02
 ETOT  3  -1232.6468631646     9.302E+01 4.779E+00 1.191E+03
 scprqt: <Vxc>= -2.9803384E-01 hartree

 Pulay update with  2 previous iterations:
 mixing of old trial potential: alpha(m:m-4)=  0.308      0.324      0.368

--- !WARNING
src_file: m_drivexc.F90
src_line: 707
message: |
    Density went too small (lower than xc_denpos) at 353 points
    and was set to xc_denpos =   1.00E-14. Lowest was  -0.45E-04.
    Likely due to too low boxcut or too low ecut for pseudopotential core charge.
...

 scfcv_core: previous iteration took 23.07 [s]

 ITER STEP NUMBER     4
 vtorho: nnsclo_now = 1, note that nnsclo, dbl_nnsclo, istep= 0 0 4
 Total charge density [el/Bohr^3]
      Maximum=    4.0758E+00  at reduced coord.    0.5000    0.5556    0.7000
      Minimum=    3.2365E-04  at reduced coord.    0.0000    0.5000    0.9722
   Integrated=    1.6200E+02
 ETOT  4  -1251.1800886826    -1.853E+01 1.677E+00 5.782E+02
 scprqt: <Vxc>= -3.0856973E-01 hartree

 Pulay update with  3 previous iterations:
 mixing of old trial potential: alpha(m:m-4)=  0.389      0.969E-01  0.212      0.302
 scfcv_core: previous iteration took 23.06 [s]

 ITER STEP NUMBER     5
 vtorho: nnsclo_now = 1, note that nnsclo, dbl_nnsclo, istep= 0 0 5
 Total charge density [el/Bohr^3]
      Maximum=    4.5225E+00  at reduced coord.    0.9722    0.9722    0.7167
      Minimum=    7.9223E-05  at reduced coord.    0.0000    0.5000    0.9722
   Integrated=    1.6200E+02
 ETOT  5  -1256.4642744550    -5.284E+00 1.401E+00 5.219E+02
 scprqt: <Vxc>= -3.0637180E-01 hartree

 Pulay update with  4 previous iterations:
 mixing of old trial potential: alpha(m:m-4)=  0.315      0.125      0.108      0.142      0.311
 scfcv_core: previous iteration took 23.20 [s]

 ITER STEP NUMBER     6
 vtorho: nnsclo_now = 1, note that nnsclo, dbl_nnsclo, istep= 0 0 6
 Total charge density [el/Bohr^3]
      Maximum=    4.5353E+00  at reduced coord.    0.9444    0.9722    0.7000
      Minimum=    1.6130E-05  at reduced coord.    0.5000    0.0000    0.9778
   Integrated=    1.6200E+02
 ETOT  6  -1257.7821645965    -1.318E+00 4.948E-01 4.384E+02
 scprqt: <Vxc>= -3.0389444E-01 hartree

 Pulay update with  5 previous iterations:
 mixing of old trial potential: alpha(m:m-4)=  0.545E-01  0.282      0.110      0.106      0.136
 scfcv_core: previous iteration took 22.86 [s]

 ITER STEP NUMBER     7
 vtorho: nnsclo_now = 1, note that nnsclo, dbl_nnsclo, istep= 0 0 7
 Total charge density [el/Bohr^3]
      Maximum=    4.5260E+00  at reduced coord.    0.9444    0.9722    0.7000
      Minimum=    7.7621E-06  at reduced coord.    0.0000    0.5000    0.9944
   Integrated=    1.6200E+02
 ETOT  7  -1257.8938490757    -1.117E-01 2.155E-02 4.179E+02
 scprqt: <Vxc>= -3.0360600E-01 hartree

 Pulay update with  6 previous iterations:
 mixing of old trial potential: alpha(m:m-4)=   6.78      -6.54      0.257      0.602E-01  0.856E-01
 scfcv_core: previous iteration took 22.88 [s]

 ITER STEP NUMBER     8
 vtorho: nnsclo_now = 1, note that nnsclo, dbl_nnsclo, istep= 0 0 8
 Total charge density [el/Bohr^3]
      Maximum=    4.4398E+00  at reduced coord.    0.9722    0.9444    0.7111
      Minimum=    7.4638E-06  at reduced coord.    0.0000    0.5000    0.9944
   Integrated=    1.6200E+02
 ETOT  8  -1256.4722731204     1.422E+00 9.550E-03 2.736E+02
 scprqt: <Vxc>= -3.0073931E-01 hartree

 Pulay update with  7 previous iterations:
 mixing of old trial potential: alpha(m:m-4)=   1.37       10.0      -10.5     -0.712E-01  0.391E-02
 scfcv_core: previous iteration took 22.87 [s]

 ITER STEP NUMBER     9
 vtorho: nnsclo_now = 1, note that nnsclo, dbl_nnsclo, istep= 0 0 9
 Total charge density [el/Bohr^3]
      Maximum=    4.2787E+00  at reduced coord.    0.9444    0.9722    0.7000
      Minimum=    8.8714E-06  at reduced coord.    0.0000    0.5000    0.9944
   Integrated=    1.6200E+02
 ETOT  9  -1255.0456667182     1.427E+00 8.062E-02 6.962E+01
 scprqt: <Vxc>= -2.9163198E-01 hartree

 Pulay update with  7 previous iterations:
 mixing of old trial potential: alpha(m:m-4)=   1.00      0.352       7.76      -7.30     -0.625

--- !WARNING
src_file: m_drivexc.F90
src_line: 707
message: |
    Density went too small (lower than xc_denpos) at 426 points
    and was set to xc_denpos =   1.00E-14. Lowest was  -0.13E-02.
    Likely due to too low boxcut or too low ecut for pseudopotential core charge.
...

 scfcv_core: previous iteration took 22.85 [s]

 ITER STEP NUMBER    10
 vtorho: nnsclo_now = 1, note that nnsclo, dbl_nnsclo, istep= 0 0 10
 Total charge density [el/Bohr^3]
      Maximum=    3.9263E+00  at reduced coord.    0.9722    0.9444    0.7111
      Minimum=    1.0379E-05  at reduced coord.    0.0000    0.5000    0.9944
   Integrated=    1.6200E+02
 ETOT 10  -1254.4833322399     5.623E-01 2.651E-02 8.716E+01
 scprqt: <Vxc>= -2.7796865E-01 hartree

 Pulay update with  7 previous iterations:
 mixing of old trial potential: alpha(m:m-4)=  0.671      0.892E-01 -0.364     -0.531       1.22
 scfcv_core: previous iteration took 22.80 [s]

 ITER STEP NUMBER    11
 vtorho: nnsclo_now = 1, note that nnsclo, dbl_nnsclo, istep= 0 0 11
 Total charge density [el/Bohr^3]
      Maximum=    4.1437E+00  at reduced coord.    0.9444    0.9722    0.7000
      Minimum=    8.1914E-06  at reduced coord.    0.0000    0.5000    0.9944
   Integrated=    1.6200E+02
 ETOT 11  -1254.0591440521     4.242E-01 2.717E-02 9.233E+00
 scprqt: <Vxc>= -2.8935011E-01 hartree

 Pulay update with  7 previous iterations:
 mixing of old trial potential: alpha(m:m-4)=  0.821      0.160      0.172     -0.265     -0.788
 scfcv_core: previous iteration took 22.69 [s]

 ITER STEP NUMBER    12
 vtorho: nnsclo_now = 1, note that nnsclo, dbl_nnsclo, istep= 0 0 12
 Total charge density [el/Bohr^3]
      Maximum=    4.0968E+00  at reduced coord.    0.9722    0.9444    0.7111
      Minimum=    7.8510E-06  at reduced coord.    0.0000    0.5000    0.9944
   Integrated=    1.6200E+02
 ETOT 12  -1254.0014925670     5.765E-02 5.422E-03 2.627E-01
 scprqt: <Vxc>= -2.8552404E-01 hartree

 Pulay update with  7 previous iterations:
 mixing of old trial potential: alpha(m:m-4)=  0.922      0.155     -0.502E-01  0.844E-01 -0.895E-01
 scfcv_core: previous iteration took 22.91 [s]

 ITER STEP NUMBER    13
 vtorho: nnsclo_now = 1, note that nnsclo, dbl_nnsclo, istep= 0 0 13
 Total charge density [el/Bohr^3]
      Maximum=    4.0770E+00  at reduced coord.    0.9444    0.9722    0.7000
      Minimum=    8.0315E-06  at reduced coord.    0.0000    0.5000    0.9944
   Integrated=    1.6200E+02
 ETOT 13  -1253.9991980187     2.295E-03 4.434E-03 4.764E-01
 scprqt: <Vxc>= -2.8411295E-01 hartree

 Pulay update with  7 previous iterations:
 mixing of old trial potential: alpha(m:m-4)=  0.775      0.232      0.387E-01 -0.625E-01  0.312E-01
 scfcv_core: previous iteration took 22.85 [s]

 ITER STEP NUMBER    14
 vtorho: nnsclo_now = 1, note that nnsclo, dbl_nnsclo, istep= 0 0 14
 Total charge density [el/Bohr^3]
      Maximum=    4.0898E+00  at reduced coord.    0.9444    0.9722    0.7000
      Minimum=    8.0777E-06  at reduced coord.    0.0000    0.5000    0.9944
   Integrated=    1.6200E+02
 ETOT 14  -1253.9966358638     2.562E-03 1.779E-03 6.158E-02
 scprqt: <Vxc>= -2.8342662E-01 hartree

 Pulay update with  7 previous iterations:
 mixing of old trial potential: alpha(m:m-4)=  0.734      0.189      0.573E-01  0.284E-01 -0.258E-01
 scfcv_core: previous iteration took 22.90 [s]

 ITER STEP NUMBER    15
 vtorho: nnsclo_now = 1, note that nnsclo, dbl_nnsclo, istep= 0 0 15
 Total charge density [el/Bohr^3]
      Maximum=    4.0893E+00  at reduced coord.    0.9444    0.9722    0.7000
      Minimum=    8.1463E-06  at reduced coord.    0.0000    0.5000    0.9944
   Integrated=    1.6200E+02
 ETOT 15  -1253.9956948413     9.410E-04 7.258E-04 1.421E-02
 scprqt: <Vxc>= -2.8278228E-01 hartree

 Pulay update with  7 previous iterations:
 mixing of old trial potential: alpha(m:m-4)=   1.20     -0.106     -0.106     -0.205E-02  0.172E-01
 scfcv_core: previous iteration took 23.16 [s]

 ITER STEP NUMBER    16
 vtorho: nnsclo_now = 1, note that nnsclo, dbl_nnsclo, istep= 0 0 16
 Total charge density [el/Bohr^3]
      Maximum=    4.0909E+00  at reduced coord.    0.9444    0.9722    0.7000
      Minimum=    8.2254E-06  at reduced coord.    0.5000    0.0000    0.9778
   Integrated=    1.6200E+02
 ETOT 16  -1253.9954499324     2.449E-04 2.609E-04 1.696E-03
 scprqt: <Vxc>= -2.8185108E-01 hartree

 Pulay update with  7 previous iterations:
 mixing of old trial potential: alpha(m:m-4)=  0.875      0.115      0.197E-01  0.151E-02 -0.149E-01
 scfcv_core: previous iteration took 22.91 [s]

 ITER STEP NUMBER    17
 vtorho: nnsclo_now = 1, note that nnsclo, dbl_nnsclo, istep= 0 0 17
 Total charge density [el/Bohr^3]
      Maximum=    4.0910E+00  at reduced coord.    0.9444    0.9722    0.7000
      Minimum=    8.2540E-06  at reduced coord.    0.5000    0.0000    0.9778
   Integrated=    1.6200E+02
 ETOT 17  -1253.9953915070     5.843E-05 3.535E-04 9.314E-04
 scprqt: <Vxc>= -2.8127015E-01 hartree

 Pulay update with  7 previous iterations:
 mixing of old trial potential: alpha(m:m-4)=   1.10     -0.214E-01 -0.939E-01  0.143E-01  0.847E-02
 scfcv_core: previous iteration took 23.16 [s]

 ITER STEP NUMBER    18
 vtorho: nnsclo_now = 1, note that nnsclo, dbl_nnsclo, istep= 0 0 18
 Total charge density [el/Bohr^3]
      Maximum=    4.0910E+00  at reduced coord.    0.9444    0.9722    0.7000
      Minimum=    8.2847E-06  at reduced coord.    0.5000    0.0000    0.9778
   Integrated=    1.6200E+02
 ETOT 18  -1253.9953702983     2.121E-05 1.304E-04 5.256E-04
 scprqt: <Vxc>= -2.8055186E-01 hartree

 Pulay update with  7 previous iterations:
 mixing of old trial potential: alpha(m:m-4)=   1.38     -0.189     -0.168     -0.833E-02 -0.114E-01
 scfcv_core: previous iteration took 23.02 [s]

 ITER STEP NUMBER    19
 vtorho: nnsclo_now = 1, note that nnsclo, dbl_nnsclo, istep= 0 0 19
 Total charge density [el/Bohr^3]
      Maximum=    4.0910E+00  at reduced coord.    0.9444    0.9722    0.7000
      Minimum=    8.3059E-06  at reduced coord.    0.5000    0.0000    0.9778
   Integrated=    1.6200E+02
 ETOT 19  -1253.9953903987    -2.010E-05 3.646E-04 2.303E-04
 scprqt: <Vxc>= -2.7962250E-01 hartree

 Pulay update with  7 previous iterations:
 mixing of old trial potential: alpha(m:m-4)=   1.55      0.249E-01 -0.659      0.668E-01  0.137E-01
 scfcv_core: previous iteration took 22.80 [s]

 ITER STEP NUMBER    20
 vtorho: nnsclo_now = 1, note that nnsclo, dbl_nnsclo, istep= 0 0 20
 Total charge density [el/Bohr^3]
      Maximum=    4.0910E+00  at reduced coord.    0.9444    0.9722    0.7000
      Minimum=    8.2940E-06  at reduced coord.    0.5000    0.0000    0.9778
   Integrated=    1.6200E+02
 ETOT 20  -1253.9954552011    -6.480E-05 2.782E-04 3.794E-05
 scprqt: <Vxc>= -2.7816802E-01 hartree

 Pulay update with  7 previous iterations:
 mixing of old trial potential: alpha(m:m-4)=   1.35     -0.177     -0.285      0.785E-01  0.314E-01
 scfcv_core: previous iteration took 22.65 [s]

 ITER STEP NUMBER    21
 vtorho: nnsclo_now = 1, note that nnsclo, dbl_nnsclo, istep= 0 0 21
 Total charge density [el/Bohr^3]
      Maximum=    4.0910E+00  at reduced coord.    0.9444    0.9722    0.7000
      Minimum=    8.2331E-06  at reduced coord.    0.5000    0.0000    0.9778
   Integrated=    1.6200E+02
 ETOT 21  -1253.9954890512    -3.385E-05 6.119E-04 4.513E-06
 scprqt: <Vxc>= -2.7716058E-01 hartree

 Pulay update with  7 previous iterations:
 mixing of old trial potential: alpha(m:m-4)=   1.09      0.133     -0.320     -0.328E-01  0.148
 scfcv_core: previous iteration took 22.54 [s]

 ITER STEP NUMBER    22
 vtorho: nnsclo_now = 1, note that nnsclo, dbl_nnsclo, istep= 0 0 22
 Total charge density [el/Bohr^3]
      Maximum=    4.0910E+00  at reduced coord.    0.9444    0.9722    0.7000
      Minimum=    8.2148E-06  at reduced coord.    0.5000    0.0000    0.9778
   Integrated=    1.6200E+02
 ETOT 22  -1253.9954939728    -4.922E-06 3.748E-04 7.944E-07
 scprqt: <Vxc>= -2.7685030E-01 hartree

 Pulay update with  7 previous iterations:
 mixing of old trial potential: alpha(m:m-4)=   1.10      0.852E-01 -0.185     -0.272E-01  0.188E-01
 scfcv_core: previous iteration took 21.94 [s]

 ITER STEP NUMBER    23
 vtorho: nnsclo_now = 1, note that nnsclo, dbl_nnsclo, istep= 0 0 23
 Total charge density [el/Bohr^3]
      Maximum=    4.0910E+00  at reduced coord.    0.9444    0.9722    0.7000
      Minimum=    8.2083E-06  at reduced coord.    0.5000    0.0000    0.9778
   Integrated=    1.6200E+02
 ETOT 23  -1253.9954948397    -8.669E-07 6.574E-04 6.814E-08
 scprqt: <Vxc>= -2.7668630E-01 hartree

 Pulay update with  7 previous iterations:
 mixing of old trial potential: alpha(m:m-4)=  0.873      0.225     -0.764E-01 -0.302E-01  0.117E-01
 scfcv_core: previous iteration took 22.04 [s]

 ITER STEP NUMBER    24
 vtorho: nnsclo_now = 1, note that nnsclo, dbl_nnsclo, istep= 0 0 24
 Total charge density [el/Bohr^3]
      Maximum=    4.0910E+00  at reduced coord.    0.9444    0.9722    0.7000
      Minimum=    8.2083E-06  at reduced coord.    0.5000    0.0000    0.9778
   Integrated=    1.6200E+02
 ETOT 24  -1253.9954948720    -3.232E-08 2.557E-04 1.758E-08
 scprqt: <Vxc>= -2.7666668E-01 hartree

 Pulay update with  7 previous iterations:
 mixing of old trial potential: alpha(m:m-4)=   1.08      0.823E-01 -0.141     -0.499E-01  0.254E-01
 scfcv_core: previous iteration took 22.63 [s]

 ITER STEP NUMBER    25
 vtorho: nnsclo_now = 1, note that nnsclo, dbl_nnsclo, istep= 0 0 25
 Total charge density [el/Bohr^3]
      Maximum=    4.0910E+00  at reduced coord.    0.9444    0.9722    0.7000
      Minimum=    8.2084E-06  at reduced coord.    0.5000    0.0000    0.9778
   Integrated=    1.6200E+02
 ETOT 25  -1253.9954948807    -8.737E-09 3.057E-04 5.007E-09
 scprqt: <Vxc>= -2.7665565E-01 hartree

 Pulay update with  7 previous iterations:
 mixing of old trial potential: alpha(m:m-4)=  0.924      0.283     -0.151     -0.705E-01  0.555E-02
 scfcv_core: previous iteration took 22.49 [s]

 ITER STEP NUMBER    26
 vtorho: nnsclo_now = 1, note that nnsclo, dbl_nnsclo, istep= 0 0 26
 Total charge density [el/Bohr^3]
      Maximum=    4.0910E+00  at reduced coord.    0.9444    0.9722    0.7000
      Minimum=    8.2085E-06  at reduced coord.    0.5000    0.0000    0.9778
   Integrated=    1.6200E+02
 ETOT 26  -1253.9954948825    -1.761E-09 1.160E-04 1.644E-09
 scprqt: <Vxc>= -2.7665214E-01 hartree

 Pulay update with  7 previous iterations:
 mixing of old trial potential: alpha(m:m-4)=   1.29     -0.143     -0.171      0.432E-05  0.226E-01
 scfcv_core: previous iteration took 22.92 [s]

 ITER STEP NUMBER    27
 vtorho: nnsclo_now = 1, note that nnsclo, dbl_nnsclo, istep= 0 0 27
 Total charge density [el/Bohr^3]
      Maximum=    4.0910E+00  at reduced coord.    0.9444    0.9722    0.7000
      Minimum=    8.2085E-06  at reduced coord.    0.5000    0.0000    0.9778
   Integrated=    1.6200E+02
 ETOT 27  -1253.9954948832    -7.090E-10 1.626E-04 5.196E-10
 scprqt: <Vxc>= -2.7665155E-01 hartree

 Pulay update with  7 previous iterations:
 mixing of old trial potential: alpha(m:m-4)=   1.28      0.730E-02 -0.248     -0.731E-01  0.293E-01
 scfcv_core: previous iteration took 22.85 [s]

 ITER STEP NUMBER    28
 vtorho: nnsclo_now = 1, note that nnsclo, dbl_nnsclo, istep= 0 0 28
 Total charge density [el/Bohr^3]
      Maximum=    4.0910E+00  at reduced coord.    0.9444    0.9722    0.7000
      Minimum=    8.2085E-06  at reduced coord.    0.5000    0.0000    0.9778
   Integrated=    1.6200E+02
 ETOT 28  -1253.9954948836    -4.093E-10 7.587E-05 8.175E-11
 scprqt: <Vxc>= -2.7665125E-01 hartree

 Pulay update with  7 previous iterations:
 mixing of old trial potential: alpha(m:m-4)=   1.15      0.706E-01 -0.230     -0.190E-01  0.178E-01
 scfcv_core: previous iteration took 22.88 [s]

 ITER STEP NUMBER    29
 vtorho: nnsclo_now = 1, note that nnsclo, dbl_nnsclo, istep= 0 0 29
 Total charge density [el/Bohr^3]
      Maximum=    4.0910E+00  at reduced coord.    0.9444    0.9722    0.7000
      Minimum=    8.2085E-06  at reduced coord.    0.5000    0.0000    0.9778
   Integrated=    1.6200E+02
 ETOT 29  -1253.9954948835     8.822E-11 1.409E-04 1.415E-11
 scprqt: <Vxc>= -2.7665130E-01 hartree

 Pulay update with  7 previous iterations:
 mixing of old trial potential: alpha(m:m-4)=   1.05      0.142     -0.199     -0.253E-01  0.326E-01
 scfcv_core: previous iteration took 22.66 [s]

 ITER STEP NUMBER    30
 vtorho: nnsclo_now = 1, note that nnsclo, dbl_nnsclo, istep= 0 0 30
 Total charge density [el/Bohr^3]
      Maximum=    4.0910E+00  at reduced coord.    0.9444    0.9722    0.7000
      Minimum=    8.2085E-06  at reduced coord.    0.5000    0.0000    0.9778
   Integrated=    1.6200E+02
 ETOT 30  -1253.9954948836    -3.820E-11 6.573E-05 3.400E-12
 scprqt: <Vxc>= -2.7665141E-01 hartree

 Pulay update with  7 previous iterations:
 mixing of old trial potential: alpha(m:m-4)=  0.997      0.118     -0.961E-01 -0.472E-01  0.186E-01
 scfcv_core: previous iteration took 22.73 [s]

 ITER STEP NUMBER    31
 vtorho: nnsclo_now = 1, note that nnsclo, dbl_nnsclo, istep= 0 0 31
 Total charge density [el/Bohr^3]
      Maximum=    4.0910E+00  at reduced coord.    0.9444    0.9722    0.7000
      Minimum=    8.2085E-06  at reduced coord.    0.5000    0.0000    0.9778
   Integrated=    1.6200E+02
 ETOT 31  -1253.9954948837    -1.501E-10 1.190E-04 2.002E-12
 scprqt: <Vxc>= -2.7665147E-01 hartree

 Pulay update with  7 previous iterations:
 mixing of old trial potential: alpha(m:m-4)=   1.14     -0.918E-02 -0.156      0.106E-01  0.193E-01
 scfcv_core: previous iteration took 22.94 [s]

 ITER STEP NUMBER    32
 vtorho: nnsclo_now = 1, note that nnsclo, dbl_nnsclo, istep= 0 0 32
 Total charge density [el/Bohr^3]
      Maximum=    4.0910E+00  at reduced coord.    0.9444    0.9722    0.7000
      Minimum=    8.2085E-06  at reduced coord.    0.5000    0.0000    0.9778
   Integrated=    1.6200E+02
 ETOT 32  -1253.9954948836     9.959E-11 5.377E-05 9.978E-13
 scprqt: <Vxc>= -2.7665156E-01 hartree

 Pulay update with  7 previous iterations:
 mixing of old trial potential: alpha(m:m-4)=   1.72     -0.424     -0.341      0.378E-02  0.415E-01
 scfcv_core: previous iteration took 22.50 [s]

 ITER STEP NUMBER    33
 vtorho: nnsclo_now = 1, note that nnsclo, dbl_nnsclo, istep= 0 0 33
 Total charge density [el/Bohr^3]
      Maximum=    4.0910E+00  at reduced coord.    0.9444    0.9722    0.7000
      Minimum=    8.2085E-06  at reduced coord.    0.5000    0.0000    0.9778
   Integrated=    1.6200E+02
 ETOT 33  -1253.9954948836    -2.728E-12 9.129E-05 3.026E-13
 scprqt: <Vxc>= -2.7665166E-01 hartree

 Pulay update with  7 previous iterations:
 mixing of old trial potential: alpha(m:m-4)=   1.21      0.347     -0.552     -0.663E-01  0.634E-01
 scfcv_core: previous iteration took 22.60 [s]

 ITER STEP NUMBER    34
 vtorho: nnsclo_now = 1, note that nnsclo, dbl_nnsclo, istep= 0 0 34
 Total charge density [el/Bohr^3]
      Maximum=    4.0910E+00  at reduced coord.    0.9444    0.9722    0.7000
      Minimum=    8.2085E-06  at reduced coord.    0.5000    0.0000    0.9778
   Integrated=    1.6200E+02
 ETOT 34  -1253.9954948836     2.728E-12 5.592E-05 5.070E-14
 scprqt: <Vxc>= -2.7665174E-01 hartree

 Pulay update with  7 previous iterations:
 mixing of old trial potential: alpha(m:m-4)=   1.16      0.376E-01 -0.229     -0.198E-01  0.478E-01
 scfcv_core: previous iteration took 22.55 [s]

 ITER STEP NUMBER    35
 vtorho: nnsclo_now = 1, note that nnsclo, dbl_nnsclo, istep= 0 0 35
 Total charge density [el/Bohr^3]
      Maximum=    4.0910E+00  at reduced coord.    0.9444    0.9722    0.7000
      Minimum=    8.2085E-06  at reduced coord.    0.5000    0.0000    0.9778
   Integrated=    1.6200E+02
 ETOT 35  -1253.9954948837    -9.095E-11 6.500E-05 9.834E-15
 scprqt: <Vxc>= -2.7665177E-01 hartree

 Pulay update with  7 previous iterations:
 mixing of old trial potential: alpha(m:m-4)=  0.899      0.383     -0.269     -0.933E-01  0.626E-01
 scfcv_core: previous iteration took 22.59 [s]

 ITER STEP NUMBER    36
 vtorho: nnsclo_now = 1, note that nnsclo, dbl_nnsclo, istep= 0 0 36
 Total charge density [el/Bohr^3]
      Maximum=    4.0910E+00  at reduced coord.    0.9444    0.9722    0.7000
      Minimum=    8.2085E-06  at reduced coord.    0.5000    0.0000    0.9778
   Integrated=    1.6200E+02
 ETOT 36  -1253.9954948836     9.823E-11 5.527E-05 1.498E-15
 scprqt: <Vxc>= -2.7665178E-01 hartree

 Pulay update with  7 previous iterations:
 mixing of old trial potential: alpha(m:m-4)=   1.07      0.892E-01 -0.117     -0.817E-01  0.411E-01
 scfcv_core: previous iteration took 21.71 [s]

 ITER STEP NUMBER    37
 vtorho: nnsclo_now = 1, note that nnsclo, dbl_nnsclo, istep= 0 0 37
 Total charge density [el/Bohr^3]
      Maximum=    4.0910E+00  at reduced coord.    0.9444    0.9722    0.7000
      Minimum=    8.2085E-06  at reduced coord.    0.5000    0.0000    0.9778
   Integrated=    1.6200E+02
 ETOT 37  -1253.9954948836    -9.550E-12 4.383E-05 3.323E-16
 scprqt: <Vxc>= -2.7665178E-01 hartree

 Pulay update with  7 previous iterations:
 mixing of old trial potential: alpha(m:m-4)=   1.01      0.178     -0.157     -0.536E-01  0.106E-01
 scfcv_core: previous iteration took 20.00 [s]

 ITER STEP NUMBER    38
 vtorho: nnsclo_now = 1, note that nnsclo, dbl_nnsclo, istep= 0 0 38
 Total charge density [el/Bohr^3]
      Maximum=    4.0910E+00  at reduced coord.    0.9444    0.9722    0.7000
      Minimum=    8.2085E-06  at reduced coord.    0.5000    0.0000    0.9778
   Integrated=    1.6200E+02
 ETOT 38  -1253.9954948836    -6.366E-12 5.201E-05 1.037E-16
 scprqt: <Vxc>= -2.7665179E-01 hartree

 Pulay update with  7 previous iterations:
 mixing of old trial potential: alpha(m:m-4)=   1.16     -0.546E-01 -0.982E-01 -0.361E-01  0.258E-01
 scfcv_core: previous iteration took 14.34 [s]

 ITER STEP NUMBER    39
 vtorho: nnsclo_now = 1, note that nnsclo, dbl_nnsclo, istep= 0 0 39
 Total charge density [el/Bohr^3]
      Maximum=    4.0910E+00  at reduced coord.    0.9444    0.9722    0.7000
      Minimum=    8.2085E-06  at reduced coord.    0.5000    0.0000    0.9778
   Integrated=    1.6200E+02
 ETOT 39  -1253.9954948835     1.269E-10 3.644E-05 3.699E-17
 scprqt: <Vxc>= -2.7665179E-01 hartree

 Pulay update with  7 previous iterations:
 mixing of old trial potential: alpha(m:m-4)=   1.47     -0.391     -0.102      0.101E-01  0.154E-01
 scfcv_core: previous iteration took  8.41 [s]

 ITER STEP NUMBER    40
 vtorho: nnsclo_now = 1, note that nnsclo, dbl_nnsclo, istep= 0 0 40
 Total charge density [el/Bohr^3]
      Maximum=    4.0910E+00  at reduced coord.    0.9444    0.9722    0.7000
      Minimum=    8.2085E-06  at reduced coord.    0.5000    0.0000    0.9778
   Integrated=    1.6200E+02
 ETOT 40  -1253.9954948837    -1.714E-10 4.676E-05 9.364E-18
 scprqt: <Vxc>= -2.7665179E-01 hartree

 Pulay update with  7 previous iterations:
 mixing of old trial potential: alpha(m:m-4)=   1.19     -0.392E-01 -0.419E-01 -0.132      0.101E-01
 scfcv_core: previous iteration took  8.58 [s]

 ITER STEP NUMBER    41
 vtorho: nnsclo_now = 1, note that nnsclo, dbl_nnsclo, istep= 0 0 41
 Total charge density [el/Bohr^3]
      Maximum=    4.0910E+00  at reduced coord.    0.9444    0.9722    0.7000
      Minimum=    8.2085E-06  at reduced coord.    0.5000    0.0000    0.9778
   Integrated=    1.6200E+02
 ETOT 41  -1253.9954948836     6.366E-11 3.209E-05 1.883E-18
 scprqt: <Vxc>= -2.7665179E-01 hartree

 Pulay update with  7 previous iterations:
 mixing of old trial potential: alpha(m:m-4)=   1.13      0.509E-01 -0.231      0.845E-01 -0.455E-01
 scfcv_core: previous iteration took  7.29 [s]

 ITER STEP NUMBER    42
 vtorho: nnsclo_now = 1, note that nnsclo, dbl_nnsclo, istep= 0 0 42
 Total charge density [el/Bohr^3]
      Maximum=    4.0910E+00  at reduced coord.    0.9444    0.9722    0.7000
      Minimum=    8.2085E-06  at reduced coord.    0.5000    0.0000    0.9778
   Integrated=    1.6200E+02
 ETOT 42  -1253.9954948836     5.457E-12 4.040E-05 3.233E-19
 scprqt: <Vxc>= -2.7665179E-01 hartree

 Pulay update with  7 previous iterations:
 mixing of old trial potential: alpha(m:m-4)=  0.847      0.209      0.387E-01 -0.172      0.950E-01
 scfcv_core: previous iteration took  6.01 [s]

 ITER STEP NUMBER    43
 vtorho: nnsclo_now = 1, note that nnsclo, dbl_nnsclo, istep= 0 0 43
 Total charge density [el/Bohr^3]
      Maximum=    4.0910E+00  at reduced coord.    0.9444    0.9722    0.7000
      Minimum=    8.2085E-06  at reduced coord.    0.5000    0.0000    0.9778
   Integrated=    1.6200E+02
 ETOT 43  -1253.9954948837    -3.956E-11 2.723E-05 1.185E-19
 scprqt: <Vxc>= -2.7665179E-01 hartree

 Pulay update with  7 previous iterations:
 mixing of old trial potential: alpha(m:m-4)=   1.49     -0.583      0.963E-01  0.404E-01 -0.594E-01
 scfcv_core: previous iteration took  5.43 [s]

 ITER STEP NUMBER    44
 vtorho: nnsclo_now = 1, note that nnsclo, dbl_nnsclo, istep= 0 0 44
 Total charge density [el/Bohr^3]
      Maximum=    4.0910E+00  at reduced coord.    0.9444    0.9722    0.7000
      Minimum=    8.2085E-06  at reduced coord.    0.5000    0.0000    0.9778
   Integrated=    1.6200E+02
 ETOT 44  -1253.9954948836     5.912E-12 3.374E-05 3.908E-20
 scprqt: <Vxc>= -2.7665179E-01 hartree

 Pulay update with  7 previous iterations:
 mixing of old trial potential: alpha(m:m-4)=  0.641      0.684     -0.355      0.103E-01  0.502E-01
 scfcv_core: previous iteration took  5.38 [s]

 ITER STEP NUMBER    45
 vtorho: nnsclo_now = 1, note that nnsclo, dbl_nnsclo, istep= 0 0 45
 Total charge density [el/Bohr^3]
      Maximum=    4.0910E+00  at reduced coord.    0.9444    0.9722    0.7000
      Minimum=    8.2085E-06  at reduced coord.    0.5000    0.0000    0.9778
   Integrated=    1.6200E+02
 ETOT 45  -1253.9954948836     1.410E-11 2.241E-05 1.746E-20
 scprqt: <Vxc>= -2.7665179E-01 hartree

 Pulay update with  7 previous iterations:
 mixing of old trial potential: alpha(m:m-4)=   2.08     -0.931     -0.216      0.849E-01 -0.388E-01
 scfcv_core: previous iteration took  5.29 [s]

 ITER STEP NUMBER    46
 vtorho: nnsclo_now = 1, note that nnsclo, dbl_nnsclo, istep= 0 0 46
 Total charge density [el/Bohr^3]
      Maximum=    4.0910E+00  at reduced coord.    0.9444    0.9722    0.7000
      Minimum=    8.2085E-06  at reduced coord.    0.5000    0.0000    0.9778
   Integrated=    1.6200E+02
 ETOT 46  -1253.9954948836     2.319E-11 2.741E-05 3.523E-21
 scprqt: <Vxc>= -2.7665179E-01 hartree

 Pulay update with  7 previous iterations:
 mixing of old trial potential: alpha(m:m-4)=  0.457       1.35     -0.756     -0.109      0.670E-01
 scfcv_core: previous iteration took  5.32 [s]

 ITER STEP NUMBER    47
 vtorho: nnsclo_now = 1, note that nnsclo, dbl_nnsclo, istep= 0 0 47
 Total charge density [el/Bohr^3]
      Maximum=    4.0910E+00  at reduced coord.    0.9444    0.9722    0.7000
      Minimum=    8.2085E-06  at reduced coord.    0.5000    0.0000    0.9778
   Integrated=    1.6200E+02
 ETOT 47  -1253.9954948836    -6.366E-12 1.799E-05 1.937E-21
 scprqt: <Vxc>= -2.7665179E-01 hartree

 Pulay update with  7 previous iterations:
 mixing of old trial potential: alpha(m:m-4)=   2.46      -1.56      0.315     -0.169     -0.385E-01
 scfcv_core: previous iteration took  5.22 [s]

 ITER STEP NUMBER    48
 vtorho: nnsclo_now = 1, note that nnsclo, dbl_nnsclo, istep= 0 0 48
 Total charge density [el/Bohr^3]
      Maximum=    4.0910E+00  at reduced coord.    0.9444    0.9722    0.7000
      Minimum=    8.2085E-06  at reduced coord.    0.5000    0.0000    0.9778
   Integrated=    1.6200E+02
 ETOT 48  -1253.9954948836    -4.547E-12 2.178E-05 4.216E-22
 scprqt: <Vxc>= -2.7665179E-01 hartree

 Pulay update with  7 previous iterations:
 mixing of old trial potential: alpha(m:m-4)=  0.841      0.674     -0.514     -0.121E-01  0.250E-01
 scfcv_core: previous iteration took  5.19 [s]

 ITER STEP NUMBER    49
 vtorho: nnsclo_now = 1, note that nnsclo, dbl_nnsclo, istep= 0 0 49
 Total charge density [el/Bohr^3]
      Maximum=    4.0910E+00  at reduced coord.    0.9444    0.9722    0.7000
      Minimum=    8.2085E-06  at reduced coord.    0.5000    0.0000    0.9778
   Integrated=    1.6200E+02
 ETOT 49  -1253.9954948836     1.319E-11 1.417E-05 1.615E-22
 scprqt: <Vxc>= -2.7665179E-01 hartree

 Pulay update with  7 previous iterations:
 mixing of old trial potential: alpha(m:m-4)=   1.59     -0.468     -0.299      0.208     -0.621E-01
 scfcv_core: previous iteration took  5.17 [s]

 ITER STEP NUMBER    50
 vtorho: nnsclo_now = 1, note that nnsclo, dbl_nnsclo, istep= 0 0 50
 Total charge density [el/Bohr^3]
      Maximum=    4.0910E+00  at reduced coord.    0.9444    0.9722    0.7000
      Minimum=    8.2085E-06  at reduced coord.    0.5000    0.0000    0.9778
   Integrated=    1.6200E+02
 ETOT 50  -1253.9954948836    -7.731E-12 1.701E-05 4.141E-23
 scprqt: <Vxc>= -2.7665179E-01 hartree

 Pulay update with  7 previous iterations:
 mixing of old trial potential: alpha(m:m-4)=   1.75      -1.09      0.340     -0.745E-01  0.685E-01
 scfcv_core: previous iteration took  5.16 [s]

 ITER STEP NUMBER    51
 vtorho: nnsclo_now = 1, note that nnsclo, dbl_nnsclo, istep= 0 0 51
 Total charge density [el/Bohr^3]
      Maximum=    4.0910E+00  at reduced coord.    0.9444    0.9722    0.7000
      Minimum=    8.2085E-06  at reduced coord.    0.5000    0.0000    0.9778
   Integrated=    1.6200E+02
 ETOT 51  -1253.9954948836    -4.547E-12 1.098E-05 9.007E-24
 scprqt: <Vxc>= -2.7665179E-01 hartree

 Pulay update with  7 previous iterations:
 mixing of old trial potential: alpha(m:m-4)=   1.42     -0.409     -0.185E-01 -0.316E-01  0.945E-01
 scfcv_core: previous iteration took  5.08 [s]

 ITER STEP NUMBER    52
 vtorho: nnsclo_now = 1, note that nnsclo, dbl_nnsclo, istep= 0 0 52
 Total charge density [el/Bohr^3]
      Maximum=    4.0910E+00  at reduced coord.    0.9444    0.9722    0.7000
      Minimum=    8.2085E-06  at reduced coord.    0.5000    0.0000    0.9778
   Integrated=    1.6200E+02
 ETOT 52  -1253.9954948836     3.183E-12 1.311E-05 1.872E-24
 scprqt: <Vxc>= -2.7665179E-01 hartree

 Pulay update with  7 previous iterations:
 mixing of old trial potential: alpha(m:m-4)=   1.10     -0.869E-01 -0.284E-01  0.474E-01 -0.360E-01
 scfcv_core: previous iteration took  5.09 [s]

 ITER STEP NUMBER    53
 vtorho: nnsclo_now = 1, note that nnsclo, dbl_nnsclo, istep= 0 0 53
 Total charge density [el/Bohr^3]
      Maximum=    4.0910E+00  at reduced coord.    0.9444    0.9722    0.7000
      Minimum=    8.2085E-06  at reduced coord.    0.5000    0.0000    0.9778
   Integrated=    1.6200E+02
 ETOT 53  -1253.9954948836     3.638E-12 8.417E-06 5.749E-25
 scprqt: <Vxc>= -2.7665179E-01 hartree

 Pulay update with  7 previous iterations:
 mixing of old trial potential: alpha(m:m-4)=   1.22     -0.678E-01 -0.173      0.410E-01 -0.360E-01
 scfcv_core: previous iteration took  5.08 [s]

 ITER STEP NUMBER    54
 vtorho: nnsclo_now = 1, note that nnsclo, dbl_nnsclo, istep= 0 0 54
 Total charge density [el/Bohr^3]
      Maximum=    4.0910E+00  at reduced coord.    0.9444    0.9722    0.7000
      Minimum=    8.2085E-06  at reduced coord.    0.5000    0.0000    0.9778
   Integrated=    1.6200E+02
 ETOT 54  -1253.9954948836     9.095E-13 9.997E-06 1.694E-25
 scprqt: <Vxc>= -2.7665179E-01 hartree

 Pulay update with  7 previous iterations:
 mixing of old trial potential: alpha(m:m-4)=  0.908      0.277     -0.162     -0.249E-01  0.132E-01
 scfcv_core: previous iteration took  5.08 [s]

 ITER STEP NUMBER    55
 vtorho: nnsclo_now = 1, note that nnsclo, dbl_nnsclo, istep= 0 0 55
 Total charge density [el/Bohr^3]
      Maximum=    4.0910E+00  at reduced coord.    0.9444    0.9722    0.7000
      Minimum=    8.2085E-06  at reduced coord.    0.5000    0.0000    0.9778
   Integrated=    1.6200E+02
 ETOT 55  -1253.9954948836     1.364E-12 6.394E-06 8.057E-26
 scprqt: <Vxc>= -2.7665179E-01 hartree

 Pulay update with  7 previous iterations:
 mixing of old trial potential: alpha(m:m-4)=  0.597      0.437      0.103     -0.132     -0.494E-02
 scfcv_core: previous iteration took  5.06 [s]

 ITER STEP NUMBER    56
 vtorho: nnsclo_now = 1, note that nnsclo, dbl_nnsclo, istep= 0 0 56
 Total charge density [el/Bohr^3]
      Maximum=    4.0910E+00  at reduced coord.    0.9444    0.9722    0.7000
      Minimum=    8.2085E-06  at reduced coord.    0.5000    0.0000    0.9778
   Integrated=    1.6200E+02
 ETOT 56  -1253.9954948836     0.000E+00 7.569E-06 5.763E-26
 scprqt: <Vxc>= -2.7665179E-01 hartree

 Pulay update with  7 previous iterations:
 mixing of old trial potential: alpha(m:m-4)=  0.367      0.349      0.341      0.310E-01 -0.956E-01
 scfcv_core: previous iteration took  5.06 [s]

 ITER STEP NUMBER    57
 vtorho: nnsclo_now = 1, note that nnsclo, dbl_nnsclo, istep= 0 0 57
 Total charge density [el/Bohr^3]
      Maximum=    4.0910E+00  at reduced coord.    0.9444    0.9722    0.7000
      Minimum=    8.2085E-06  at reduced coord.    0.5000    0.0000    0.9778
   Integrated=    1.6200E+02
 ETOT 57  -1253.9954948836     9.095E-13 4.825E-06 7.024E-26
 scprqt: <Vxc>= -2.7665179E-01 hartree

 Pulay update with  7 previous iterations:
 mixing of old trial potential: alpha(m:m-4)=  0.822E-01  0.361      0.300      0.323     -0.322E-01
 scfcv_core: previous iteration took  5.07 [s]

 ITER STEP NUMBER    58
 vtorho: nnsclo_now = 1, note that nnsclo, dbl_nnsclo, istep= 0 0 58
 Total charge density [el/Bohr^3]
      Maximum=    4.0910E+00  at reduced coord.    0.9444    0.9722    0.7000
      Minimum=    8.2085E-06  at reduced coord.    0.5000    0.0000    0.9778
   Integrated=    1.6200E+02
 ETOT 58  -1253.9954948836     4.547E-13 5.697E-06 8.276E-26
 scprqt: <Vxc>= -2.7665179E-01 hartree

 Pulay update with  7 previous iterations:
 mixing of old trial potential: alpha(m:m-4)= -0.259      0.211      0.385      0.372      0.325
 scfcv_core: previous iteration took  5.06 [s]

 ITER STEP NUMBER    59
 vtorho: nnsclo_now = 1, note that nnsclo, dbl_nnsclo, istep= 0 0 59
 Total charge density [el/Bohr^3]
      Maximum=    4.0910E+00  at reduced coord.    0.9444    0.9722    0.7000
      Minimum=    8.2085E-06  at reduced coord.    0.5000    0.0000    0.9778
   Integrated=    1.6200E+02
 ETOT 59  -1253.9954948836    -1.819E-12 3.623E-06 1.539E-25
 scprqt: <Vxc>= -2.7665179E-01 hartree

 Pulay update with  7 previous iterations:
 mixing of old trial potential: alpha(m:m-4)= -0.541      0.414      0.257      0.387      0.324
 scfcv_core: previous iteration took  5.03 [s]

 ITER STEP NUMBER    60
 vtorho: nnsclo_now = 1, note that nnsclo, dbl_nnsclo, istep= 0 0 60
 Total charge density [el/Bohr^3]
      Maximum=    4.0910E+00  at reduced coord.    0.9444    0.9722    0.7000
      Minimum=    8.2085E-06  at reduced coord.    0.5000    0.0000    0.9778
   Integrated=    1.6200E+02
 ETOT 60  -1253.9954948836    -2.728E-12 4.270E-06 1.748E-25
 scprqt: <Vxc>= -2.7665179E-01 hartree

 Pulay update with  7 previous iterations:
 mixing of old trial potential: alpha(m:m-4)= -0.129E-01 -0.515      0.437      0.255      0.414
 scfcv_core: previous iteration took  5.01 [s]

 ITER STEP NUMBER    61
 vtorho: nnsclo_now = 1, note that nnsclo, dbl_nnsclo, istep= 0 0 61
 Total charge density [el/Bohr^3]
      Maximum=    4.0910E+00  at reduced coord.    0.9444    0.9722    0.7000
      Minimum=    8.2085E-06  at reduced coord.    0.5000    0.0000    0.9778
   Integrated=    1.6200E+02
 ETOT 61  -1253.9954948836     2.274E-12 2.710E-06 2.165E-25
 scprqt: <Vxc>= -2.7665179E-01 hartree

 Pulay update with  7 previous iterations:
 mixing of old trial potential: alpha(m:m-4)= -0.154      0.812E-01 -0.448      0.472      0.272
 scfcv_core: previous iteration took  5.03 [s]

 ITER STEP NUMBER    62
 vtorho: nnsclo_now = 1, note that nnsclo, dbl_nnsclo, istep= 0 0 62
 Total charge density [el/Bohr^3]
      Maximum=    4.0910E+00  at reduced coord.    0.9444    0.9722    0.7000
      Minimum=    8.2085E-06  at reduced coord.    0.5000    0.0000    0.9778
   Integrated=    1.6200E+02
 ETOT 62  -1253.9954948836     4.547E-13 3.191E-06 2.795E-25
 scprqt: <Vxc>= -2.7665179E-01 hartree

 Pulay update with  7 previous iterations:
 mixing of old trial potential: alpha(m:m-4)= -0.280      0.224E-01  0.109     -0.338      0.539
 scfcv_core: previous iteration took  4.97 [s]

 ITER STEP NUMBER    63
 vtorho: nnsclo_now = 1, note that nnsclo, dbl_nnsclo, istep= 0 0 63
 Total charge density [el/Bohr^3]
      Maximum=    4.0910E+00  at reduced coord.    0.9444    0.9722    0.7000
      Minimum=    8.2085E-06  at reduced coord.    0.5000    0.0000    0.9778
   Integrated=    1.6200E+02
 ETOT 63  -1253.9954948836    -1.819E-12 2.022E-06 3.118E-25
 scprqt: <Vxc>= -2.7665179E-01 hartree

 Pulay update with  7 previous iterations:
 mixing of old trial potential: alpha(m:m-4)= -0.174     -0.213      0.188E-01  0.161     -0.246
 scfcv_core: previous iteration took  4.99 [s]

 ITER STEP NUMBER    64
 vtorho: nnsclo_now = 1, note that nnsclo, dbl_nnsclo, istep= 0 0 64
 Total charge density [el/Bohr^3]
      Maximum=    4.0910E+00  at reduced coord.    0.9444    0.9722    0.7000
      Minimum=    8.2085E-06  at reduced coord.    0.5000    0.0000    0.9778
   Integrated=    1.6200E+02
 ETOT 64  -1253.9954948836    -1.364E-12 2.378E-06 3.326E-25
 scprqt: <Vxc>= -2.7665179E-01 hartree

 Pulay update with  7 previous iterations:
 mixing of old trial potential: alpha(m:m-4)= -0.260     -0.207     -0.968E-01  0.605E-01  0.209
 scfcv_core: previous iteration took  4.98 [s]

 ITER STEP NUMBER    65
 vtorho: nnsclo_now = 1, note that nnsclo, dbl_nnsclo, istep= 0 0 65
 Total charge density [el/Bohr^3]
      Maximum=    4.0910E+00  at reduced coord.    0.9444    0.9722    0.7000
      Minimum=    8.2085E-06  at reduced coord.    0.5000    0.0000    0.9778
   Integrated=    1.6200E+02
 ETOT 65  -1253.9954948836     1.364E-12 1.505E-06 3.818E-25
 scprqt: <Vxc>= -2.7665179E-01 hartree

 Pulay update with  7 previous iterations:
 mixing of old trial potential: alpha(m:m-4)= -0.182     -0.235     -0.235     -0.172E-01  0.244E-01
 scfcv_core: previous iteration took  4.99 [s]

 ITER STEP NUMBER    66
 vtorho: nnsclo_now = 1, note that nnsclo, dbl_nnsclo, istep= 0 0 66
 Total charge density [el/Bohr^3]
      Maximum=    4.0910E+00  at reduced coord.    0.9444    0.9722    0.7000
      Minimum=    8.2085E-06  at reduced coord.    0.5000    0.0000    0.9778
   Integrated=    1.6200E+02
 ETOT 66  -1253.9954948836     0.000E+00 1.770E-06 4.336E-25
 scprqt: <Vxc>= -2.7665179E-01 hartree

 Pulay update with  7 previous iterations:
 mixing of old trial potential: alpha(m:m-4)= -0.425     -0.139     -0.229     -0.343     -0.668E-01
 scfcv_core: previous iteration took  4.99 [s]

 ITER STEP NUMBER    67
 vtorho: nnsclo_now = 1, note that nnsclo, dbl_nnsclo, istep= 0 0 67
 Total charge density [el/Bohr^3]
      Maximum=    4.0910E+00  at reduced coord.    0.9444    0.9722    0.7000
      Minimum=    8.2085E-06  at reduced coord.    0.5000    0.0000    0.9778
   Integrated=    1.6200E+02
 ETOT 67  -1253.9954948836    -4.547E-13 1.119E-06 5.379E-25
 scprqt: <Vxc>= -2.7665179E-01 hartree

 Pulay update with  7 previous iterations:
 mixing of old trial potential: alpha(m:m-4)= -0.549E-01 -0.846     -0.109     -0.401      0.122
 scfcv_core: previous iteration took  4.99 [s]

 ITER STEP NUMBER    68
 vtorho: nnsclo_now = 1, note that nnsclo, dbl_nnsclo, istep= 0 0 68
 Total charge density [el/Bohr^3]
      Maximum=    4.0910E+00  at reduced coord.    0.9444    0.9722    0.7000
      Minimum=    8.2085E-06  at reduced coord.    0.5000    0.0000    0.9778
   Integrated=    1.6200E+02
 ETOT 68  -1253.9954948836    -2.274E-12 1.315E-06 5.212E-25
 scprqt: <Vxc>= -2.7665179E-01 hartree

 Pulay update with  7 previous iterations:
 mixing of old trial potential: alpha(m:m-4)= -0.331E-01 -0.326     -0.746     -0.135     -0.107
 scfcv_core: previous iteration took  4.99 [s]

 ITER STEP NUMBER    69
 vtorho: nnsclo_now = 1, note that nnsclo, dbl_nnsclo, istep= 0 0 69
 Total charge density [el/Bohr^3]
      Maximum=    4.0910E+00  at reduced coord.    0.9444    0.9722    0.7000
      Minimum=    8.2085E-06  at reduced coord.    0.5000    0.0000    0.9778
   Integrated=    1.6200E+02
 ETOT 69  -1253.9954948836     1.819E-12 8.308E-07 8.264E-25
 scprqt: <Vxc>= -2.7665179E-01 hartree

 Pulay update with  7 previous iterations:
 mixing of old trial potential: alpha(m:m-4)=  0.129     -0.546     -0.366     -0.964     -0.422
[...]
      Minimum=    0.0000E+00  at reduced coord.    0.0000    0.0000    0.0000
 Next minimum=    0.0000E+00  at reduced coord.    0.0278    0.0000    0.0000
   Integrated=    0.0000E+00

== END DATASET(S) ==============================================================
================================================================================
  
 -outvars: echo values of variables after computation  --------
 
 These variables are accessible in NetCDF format (Cs2TiI6o_OUT.nc)

            acell      7.7624316804E+00  7.7624316804E+00  7.7624316804E+00 Bohr
              amu      1.18710000E+02  7.89600000E+01  6.53900000E+01
           diemac      1.20000000E+01
        dosdeltae1     0.00000000E+00 Hartree
        dosdeltae2     0.00000000E+00 Hartree
        dosdeltae3     1.00000000E-03 Hartree
             ecut      2.25000000E+01 Hartree
           etotal1    -1.2539954949E+03
           etotal3    -1.2539954949E+03
            fcart1    -0.0000000000E+00 -0.0000000000E+00 -1.3895780653E-02
                      -0.0000000000E+00 -0.0000000000E+00 -2.1095258834E-03
                      -0.0000000000E+00 -0.0000000000E+00  1.2472946363E-02
                      -0.0000000000E+00 -0.0000000000E+00 -1.6685235327E-02
                      -0.0000000000E+00 -0.0000000000E+00  2.5489772097E-04
                      -0.0000000000E+00 -0.0000000000E+00  2.0755706427E-02
                      -0.0000000000E+00 -0.0000000000E+00  1.1391789825E-02
                      -0.0000000000E+00 -0.0000000000E+00 -8.6532356798E-03
                      -0.0000000000E+00 -0.0000000000E+00 -1.7657813968E-03
                      -0.0000000000E+00 -0.0000000000E+00 -1.7657813968E-03
-          fftalg         112
           getden1          0
           getden2          1
           getden3          1
           getwfk1          0
           getwfk2          0
           getwfk3          1
           iatsph3       1    4    8    9
             iscf1         17
             iscf2         -2
             iscf3         -3
           istwfk2       7    0    0    0    0    0    0    0    0    0
                         4    0    0    0    0    0    0    0    0    0
                         0    0    2    0    0    0    0    0    0    0
                         0    0    0    0    0    0    0    0    0    0
                         9    0    0    0    0    0    0    0    8    0
              ixc     -101130
           jdtset        1    2    3
              kpt1     6.25000000E-02  6.25000000E-02  5.00000000E-01
                       1.87500000E-01  6.25000000E-02  5.00000000E-01
                       3.12500000E-01  6.25000000E-02  5.00000000E-01
                       4.37500000E-01  6.25000000E-02  5.00000000E-01
                       1.87500000E-01  1.87500000E-01  5.00000000E-01
                       3.12500000E-01  1.87500000E-01  5.00000000E-01
                       4.37500000E-01  1.87500000E-01  5.00000000E-01
                       3.12500000E-01  3.12500000E-01  5.00000000E-01
                       4.37500000E-01  3.12500000E-01  5.00000000E-01
                       4.37500000E-01  4.37500000E-01  5.00000000E-01
              kpt2     5.00000000E-01  5.00000000E-01  0.00000000E+00
                       4.50000000E-01  4.50000000E-01  5.00000000E-02
                       4.00000000E-01  4.00000000E-01  1.00000000E-01
                       3.50000000E-01  3.50000000E-01  1.50000000E-01
                       3.00000000E-01  3.00000000E-01  2.00000000E-01
                       2.50000000E-01  2.50000000E-01  2.50000000E-01
                       2.00000000E-01  2.00000000E-01  3.00000000E-01
                       1.50000000E-01  1.50000000E-01  3.50000000E-01
                       1.00000000E-01  1.00000000E-01  4.00000000E-01
                       5.00000000E-02  5.00000000E-02  4.50000000E-01
                       0.00000000E+00  0.00000000E+00  5.00000000E-01
                       0.00000000E+00  0.00000000E+00  4.58333333E-01
                       0.00000000E+00  0.00000000E+00  4.16666667E-01
                       0.00000000E+00  0.00000000E+00  3.75000000E-01
                       0.00000000E+00  0.00000000E+00  3.33333333E-01
                       0.00000000E+00  0.00000000E+00  2.91666667E-01
                       0.00000000E+00  0.00000000E+00  2.50000000E-01
                       0.00000000E+00  0.00000000E+00  2.08333333E-01
                       0.00000000E+00  0.00000000E+00  1.66666667E-01
                       0.00000000E+00  0.00000000E+00  1.25000000E-01
                       0.00000000E+00  0.00000000E+00  8.33333333E-02
                       0.00000000E+00  0.00000000E+00  4.16666667E-02
                       0.00000000E+00  0.00000000E+00  0.00000000E+00
                       2.77777778E-02  2.77777778E-02  2.77777778E-02
                       5.55555556E-02  5.55555556E-02  5.55555556E-02
                       8.33333333E-02  8.33333333E-02  8.33333333E-02
                       1.11111111E-01  1.11111111E-01  1.11111111E-01
                       1.38888889E-01  1.38888889E-01  1.38888889E-01
                       1.66666667E-01  1.66666667E-01  1.66666667E-01
                       1.94444444E-01  1.94444444E-01  1.94444444E-01
                       2.22222222E-01  2.22222222E-01  2.22222222E-01
                       2.50000000E-01  2.50000000E-01  2.50000000E-01
                       2.77777778E-01  2.77777778E-01  2.77777778E-01
                       3.05555556E-01  3.05555556E-01  3.05555556E-01
                       3.33333333E-01  3.33333333E-01  3.33333333E-01
                       3.61111111E-01  3.61111111E-01  3.61111111E-01
                       3.88888889E-01  3.88888889E-01  3.88888889E-01
                       4.16666667E-01  4.16666667E-01  4.16666667E-01
                       4.44444444E-01  4.44444444E-01  4.44444444E-01
                       4.72222222E-01  4.72222222E-01  4.72222222E-01
                       5.00000000E-01  5.00000000E-01  5.00000000E-01
                       4.37500000E-01  5.00000000E-01  5.00000000E-01
                       3.75000000E-01  5.00000000E-01  5.00000000E-01
                       3.12500000E-01  5.00000000E-01  5.00000000E-01
                       2.50000000E-01  5.00000000E-01  5.00000000E-01
                       1.87500000E-01  5.00000000E-01  5.00000000E-01
                       1.25000000E-01  5.00000000E-01  5.00000000E-01
                       6.25000000E-02  5.00000000E-01  5.00000000E-01
                       0.00000000E+00  5.00000000E-01  5.00000000E-01
                       0.00000000E+00  5.00000000E-01  4.37500000E-01
              kpt3     6.25000000E-02  6.25000000E-02  5.00000000E-01
                       1.87500000E-01  6.25000000E-02  5.00000000E-01
                       3.12500000E-01  6.25000000E-02  5.00000000E-01
                       4.37500000E-01  6.25000000E-02  5.00000000E-01
                       1.87500000E-01  1.87500000E-01  5.00000000E-01
                       3.12500000E-01  1.87500000E-01  5.00000000E-01
                       4.37500000E-01  1.87500000E-01  5.00000000E-01
                       3.12500000E-01  3.12500000E-01  5.00000000E-01
                       4.37500000E-01  3.12500000E-01  5.00000000E-01
                       4.37500000E-01  4.37500000E-01  5.00000000E-01
                       outvar_i_n : Printing only first  50 k-points.
           kptopt1          1
           kptopt2         -5
           kptopt3          1
         kptrlatt        8    0    0      0    8    0      0    0    1
          kptrlen1     6.20994534E+01
          kptrlen2     3.00000000E+01
          kptrlen3     6.20994534E+01
P           mkmem1          2
P           mkmem2         10
P           mkmem3          2
            natom          10
           natsph3       4
            nband1         90
            nband2         90
            nband3         90
           nbdbuf1          0
           nbdbuf2          2
           nbdbuf3          2
           ndtset           3
            ngfft          36      36     180
             nkpt1         10
             nkpt2         57
             nkpt3         10
            nstep1       1000
            nstep2        300
            nstep3        300
             nsym           8
           ntypat           3
              occ      2.000000  2.000000  2.000000  2.000000  2.000000  2.000000
                       2.000000  2.000000  2.000000  2.000000  2.000000  2.000000
                       2.000000  2.000000  2.000000  2.000000  2.000000  2.000000
                       2.000000  2.000000  2.000000  2.000000  2.000000  2.000000
                       2.000000  2.000000  2.000000  2.000000  2.000000  2.000000
                       2.000000  2.000000  2.000000  2.000000  2.000000  2.000000
                       2.000000  2.000000  2.000000  2.000000  2.000000  2.000000
                       2.000000  2.000000  2.000000  2.000000  2.000000  2.000000
                       2.000000  2.000000  2.000000  2.000000  2.000000  2.000000
                       2.000000  2.000000  2.000000  2.000000  2.000000  2.000000
                       2.000000  2.000000  2.000000  2.000000  2.000000  2.000000
                       2.000000  2.000000  2.000000  2.000000  2.000000  2.000000
                       2.000000  2.000000  2.000000  2.000000  2.000000  2.000000
                       2.000000  2.000000  2.000000  0.000000  0.000000  0.000000
                       0.000000  0.000000  0.000000  0.000000  0.000000  0.000000
           prtcif           1
           prtdos1          0
           prtdos2          0
           prtdos3          3
            rprim      1.0000000000E+00  0.0000000000E+00  0.0000000000E+00
                       0.0000000000E+00  1.0000000000E+00  0.0000000000E+00
                       0.0000000000E+00  0.0000000000E+00  5.1025955632E+00
           shiftk      5.00000000E-01  5.00000000E-01  5.00000000E-01
          spgroup          99
           strten1     1.4503213674E-02  1.4503213674E-02  1.4452433662E-02
                       0.0000000000E+00  0.0000000000E+00  0.0000000000E+00
           symrel      1  0  0   0  1  0   0  0  1       1  0  0   0 -1  0   0  0  1
                      -1  0  0   0 -1  0   0  0  1      -1  0  0   0  1  0   0  0  1
                       0  1  0   1  0  0   0  0  1       0  1  0  -1  0  0   0  0  1
                       0 -1  0  -1  0  0   0  0  1       0 -1  0   1  0  0   0  0  1
            tnons      0.0000000  0.0000000  0.0000000     0.0000000 -0.0000000  0.0000000
                      -0.0000000 -0.0000000  0.0000000    -0.0000000  0.0000000  0.0000000
                       0.5000000  0.5000000  0.0000000     0.5000000  0.5000000  0.0000000
                       0.5000000  0.5000000  0.0000000     0.5000000  0.5000000  0.0000000
           tolwfr      1.00000000E-20
            typat      1  1  1  2  2  2  2  2  3  3
           vdw_xc           5
              wtk1       0.06250    0.12500    0.12500    0.12500    0.06250    0.12500
                         0.12500    0.06250    0.12500    0.06250
              wtk2       1.00000    1.00000    1.00000    1.00000    1.00000    1.00000
                         1.00000    1.00000    1.00000    1.00000    1.00000    1.00000
                         1.00000    1.00000    1.00000    1.00000    1.00000    1.00000
                         1.00000    1.00000    1.00000    1.00000    1.00000    1.00000
                         1.00000    1.00000    1.00000    1.00000    1.00000    1.00000
                         1.00000    1.00000    1.00000    1.00000    1.00000    1.00000
                         1.00000    1.00000    1.00000    1.00000    1.00000    1.00000
                         1.00000    1.00000    1.00000    1.00000    1.00000    1.00000
                         1.00000    1.00000
              wtk3       0.06250    0.12500    0.12500    0.12500    0.06250    0.12500
                         0.12500    0.06250    0.12500    0.06250
                       outvars : Printing only first  50 k-points.
           xangst      2.0538509643E+00  0.0000000000E+00  4.6664585258E+00
                       0.0000000000E+00  2.0538509643E+00  7.4160884693E+00
                       2.0538509643E+00  0.0000000000E+00  1.0102188830E+01
                       0.0000000000E+00  2.0538509643E+00  4.6982337974E+00
                       2.0538509643E+00  0.0000000000E+00  7.3843341577E+00
                       0.0000000000E+00  2.0538509643E+00  1.0133964101E+01
                       2.0538509643E+00  0.0000000000E+00  1.3303463595E+01
                       0.0000000000E+00  2.0538509643E+00  1.6293483109E+01
                       2.0538509643E+00  2.0538509643E+00  1.4798473352E+01
                       0.0000000000E+00  0.0000000000E+00  1.4798473352E+01
            xcart      3.8812158402E+00  0.0000000000E+00  8.8183286243E+00
                       0.0000000000E+00  3.8812158402E+00  1.4014376184E+01
                       3.8812158402E+00  0.0000000000E+00  1.9090370231E+01
                       0.0000000000E+00  3.8812158402E+00  8.8783751853E+00
                       3.8812158402E+00  0.0000000000E+00  1.3954369232E+01
                       0.0000000000E+00  3.8812158402E+00  1.9150416792E+01
                       3.8812158402E+00  0.0000000000E+00  2.5139902814E+01
                       0.0000000000E+00  3.8812158402E+00  3.0790220828E+01
                       3.8812158402E+00  3.8812158402E+00  2.7965061821E+01
                       0.0000000000E+00  0.0000000000E+00  2.7965061821E+01
             xred      5.0000000000E-01  0.0000000000E+00  2.2263700000E-01
                       0.0000000000E+00  5.0000000000E-01  3.5382200000E-01
                       5.0000000000E-01  0.0000000000E+00  4.8197600000E-01
                       0.0000000000E+00  5.0000000000E-01  2.2415300000E-01
                       5.0000000000E-01  0.0000000000E+00  3.5230700000E-01
                       0.0000000000E+00  5.0000000000E-01  4.8349200000E-01
                       5.0000000000E-01  0.0000000000E+00  6.3470900000E-01
                       0.0000000000E+00  5.0000000000E-01  7.7736300000E-01
                       5.0000000000E-01  5.0000000000E-01  7.0603600000E-01
                       0.0000000000E+00  0.0000000000E+00  7.0603600000E-01
            znucl       50.00000   34.00000   30.00000

================================================================================
  

================================================================================

 Suggested references for the acknowledgment of ABINIT usage.

 The users of ABINIT have little formal obligations with respect to the ABINIT group
 (those specified in the GNU General Public License, http://www.gnu.org/copyleft/gpl.txt).
 However, it is common practice in the scientific literature,
 to acknowledge the efforts of people that have made the research possible.
 In this spirit, please find below suggested citations of work written by ABINIT developers,
 corresponding to implementations inside of ABINIT that you have used in the present run.
 Note also that it will be of great value to readers of publications presenting these results,
 to read papers enabling them to understand the theoretical formalism and details
 of the ABINIT implementation.
 For information on why they are suggested, see also https://docs.abinit.org/theory/acknowledgments.
-
- [1] Libxc: A library of exchange and correlation functionals for density functional theory.
- M.A.L. Marques, M.J.T. Oliveira, T. Burnus, Computer Physics Communications 183, 2227 (2012).
- Comment: to be cited when LibXC is used (negative value of ixc)
- Strong suggestion to cite this paper.
- DOI and bibtex: see https://docs.abinit.org/theory/bibliography/#marques2012
-
- [2] The Abinit project: Impact, environment and recent developments.
- Computer Phys. Comm. 248, 107042 (2020).
- X.Gonze, B. Amadon, G. Antonius, F.Arnardi, L.Baguet, J.-M.Beuken,
- J.Bieder, F.Bottin, J.Bouchet, E.Bousquet, N.Brouwer, F.Bruneval,
- G.Brunin, T.Cavignac, J.-B. Charraud, Wei Chen, M.Cote, S.Cottenier,
- J.Denier, G.Geneste, Ph.Ghosez, M.Giantomassi, Y.Gillet, O.Gingras,
- D.R.Hamann, G.Hautier, Xu He, N.Helbig, N.Holzwarth, Y.Jia, F.Jollet,
- W.Lafargue-Dit-Hauret, K.Lejaeghere, M.A.L.Marques, A.Martin, C.Martins,
- H.P.C. Miranda, F.Naccarato, K. Persson, G.Petretto, V.Planes, Y.Pouillon,
- S.Prokhorenko, F.Ricci, G.-M.Rignanese, A.H.Romero, M.M.Schmitt, M.Torrent,
- M.J.van Setten, B.Van Troeye, M.J.Verstraete, G.Zerah and J.W.Zwanzig
- Comment: the fifth generic paper describing the ABINIT project.
- Note that a version of this paper, that is not formatted for Computer Phys. Comm. 
- is available at https://www.abinit.org/sites/default/files/ABINIT20.pdf .
- The licence allows the authors to put it on the Web.
- DOI and bibtex: see https://docs.abinit.org/theory/bibliography/#gonze2020
-
- [3] Optimized norm-conserving Vanderbilt pseudopotentials.
- D.R. Hamann, Phys. Rev. B 88, 085117 (2013).
- Comment: Some pseudopotential generated using the ONCVPSP code were used.
- DOI and bibtex: see https://docs.abinit.org/theory/bibliography/#hamann2013
-
- [4] ABINIT: Overview, and focus on selected capabilities
- J. Chem. Phys. 152, 124102 (2020).
- A. Romero, D.C. Allan, B. Amadon, G. Antonius, T. Applencourt, L.Baguet,
- J.Bieder, F.Bottin, J.Bouchet, E.Bousquet, F.Bruneval,
- G.Brunin, D.Caliste, M.Cote,
- J.Denier, C. Dreyer, Ph.Ghosez, M.Giantomassi, Y.Gillet, O.Gingras,
- D.R.Hamann, G.Hautier, F.Jollet, G. Jomard,
- A.Martin, 
- H.P.C. Miranda, F.Naccarato, G.Petretto, N.A. Pike, V.Planes,
- S.Prokhorenko, T. Rangel, F.Ricci, G.-M.Rignanese, M.Royo, M.Stengel, M.Torrent,
- M.J.van Setten, B.Van Troeye, M.J.Verstraete, J.Wiktor, J.W.Zwanziger, and X.Gonze.
- Comment: a global overview of ABINIT, with focus on selected capabilities .
- Note that a version of this paper, that is not formatted for J. Chem. Phys 
- is available at https://www.abinit.org/sites/default/files/ABINIT20_JPC.pdf .
- The licence allows the authors to put it on the Web.
- DOI and bibtex: see https://docs.abinit.org/theory/bibliography/#romero2020
-
- [5] Recent developments in the ABINIT software package.
- Computer Phys. Comm. 205, 106 (2016).
- X.Gonze, F.Jollet, F.Abreu Araujo, D.Adams, B.Amadon, T.Applencourt,
- C.Audouze, J.-M.Beuken, J.Bieder, A.Bokhanchuk, E.Bousquet, F.Bruneval
- D.Caliste, M.Cote, F.Dahm, F.Da Pieve, M.Delaveau, M.Di Gennaro,
- B.Dorado, C.Espejo, G.Geneste, L.Genovese, A.Gerossier, M.Giantomassi,
- Y.Gillet, D.R.Hamann, L.He, G.Jomard, J.Laflamme Janssen, S.Le Roux,
- A.Levitt, A.Lherbier, F.Liu, I.Lukacevic, A.Martin, C.Martins,
- M.J.T.Oliveira, S.Ponce, Y.Pouillon, T.Rangel, G.-M.Rignanese,
- A.H.Romero, B.Rousseau, O.Rubel, A.A.Shukri, M.Stankovski, M.Torrent,
- M.J.Van Setten, B.Van Troeye, M.J.Verstraete, D.Waroquier, J.Wiktor,
- B.Xu, A.Zhou, J.W.Zwanziger.
- Comment: the fourth generic paper describing the ABINIT project.
- Note that a version of this paper, that is not formatted for Computer Phys. Comm. 
- is available at https://www.abinit.org/sites/default/files/ABINIT16.pdf .
- The licence allows the authors to put it on the Web.
- DOI and bibtex: see https://docs.abinit.org/theory/bibliography/#gonze2016
 Proc.   0 individual time (sec): cpu=       8085.9  wall=       8086.4

 Calculation completed.
.Delivered   1 WARNINGs and   0 COMMENTs to log file.

--- !FinalSummary
program: abinit
version: 9.2.2
start_datetime: Sat Mar 16 17:47:52 2024
end_datetime: Sat Mar 16 20:02:38 2024
overall_cpu_time:       48516.0
overall_wall_time:       48518.1
exit_requested_by_user: no 
timelimit: 0
pseudos: 
    Sn  : c918e999fc214fef37654f9ff7d5f03d
    Se  : f801923bd422df98a30264e8ccc86374
    Zn  : 80c9b4d1484b64588a366a4998a7c40d
usepaw: 0
mpi_procs: 6
omp_threads: 1
num_warnings: 1
num_comments: 0
...
