  ABINIT 9.2.2
  
 DeprecationWarning: 

     The files file has been deprecated in Abinit9 and will be removed in Abinit10.
     Use the syntax `abinit t01.abi` where t01.abi is an input with pseudopotenials.

            pseudos = "al.psp8, as.psp8"


  Give name for formatted input file: 
Cs2TiI6.in
  Give name for formatted output file:
Cs2TiI6.out
  Give root name for generic input files:
Cs2TiI6i
  Give root name for generic output files:
Cs2TiI6o
  Give root name for generic temporary files:
Cs2TiI6

.Version 9.2.2 of ABINIT 
.(MPI version, prepared for a x86_64_linux_gnu9.3 computer) 

.Copyright (C) 1998-2020 ABINIT group . 
 ABINIT comes with ABSOLUTELY NO WARRANTY.
 It is free software, and you are welcome to redistribute it
 under certain conditions (GNU General Public License,
 see ~abinit/COPYING or http://www.gnu.org/copyleft/gpl.txt).

 ABINIT is a project of the Universite Catholique de Louvain,
 Corning Inc. and other collaborators, see ~abinit/doc/developers/contributors.txt .
 Please read https://docs.abinit.org/theory/acknowledgments for suggested
 acknowledgments of the ABINIT effort.
 For more information, see https://www.abinit.org .

.Starting date : Sat 24 Feb 2024.
- ( at 21h42 )
  
- The starting date is more than 3 years after the initial release
- of this version of ABINIT, namely Nov 2020.
- This version of ABINIT is not supported anymore.
- Action: please, switch to a more recent version of ABINIT.

 ++++++++++++++++++++++++++++++++++++++++++++++++++++++++++++++++++++++++++++++

 === Build Information === 
  Version       : 9.2.2
  Build target  : x86_64_linux_gnu9.3
  Build date    : 20210501

 === Compiler Suite === 
  C compiler       : gnu9.3
  C++ compiler     : generic0.0
  Fortran compiler : gnu9.3
  CFLAGS           : -g -O2 -mtune=native -march=native
  CXXFLAGS         : 
  FCFLAGS          : -g -ffree-line-length-none
  FC_LDFLAGS       : 

 === Optimizations === 
  Debug level        : basic
  Optimization level : standard
  Architecture       : unknown_unknown

 === Multicore === 
  Parallel build : yes
  Parallel I/O   : yes
  openMP support : 
  GPU support    : 

 === Connectors / Fallbacks === 
  LINALG flavor  : netlib
  FFT flavor     : goedecker
  HDF5           : yes
  NetCDF         : yes
  NetCDF Fortran : yes
  LibXC          : yes
  Wannier90      : no

 === Experimental features === 
  Exports             : 
  GW double-precision : 

 ++++++++++++++++++++++++++++++++++++++++++++++++++++++++++++++++++++++++++++++


 ++++++++++++++++++++++++++++++++++++++++++++++++++++++++++++++++++++++++++++++
 Default optimizations:
   -O2 -mtune=native -march=native


 Optimizations for 43_ptgroups:
   -O0


 ++++++++++++++++++++++++++++++++++++++++++++++++++++++++++++++++++++++++++++++


 ++++++++++++++++++++++++++++++++++++++++++++++++++++++++++++++++++++++++++++++
 CPP options activated during the build:

                    CC_GNU                    FC_GNU HAVE_FC_ALLOCATABLE_DT...
 
             HAVE_FC_ASYNC         HAVE_FC_BACKTRACE  HAVE_FC_COMMAND_ARGUMENT
 
      HAVE_FC_COMMAND_LINE        HAVE_FC_CONTIGUOUS           HAVE_FC_CPUTIME
 
              HAVE_FC_EXIT             HAVE_FC_FLUSH             HAVE_FC_GAMMA
 
            HAVE_FC_GETENV   HAVE_FC_IEEE_ARITHMETIC   HAVE_FC_IEEE_EXCEPTIONS
 
          HAVE_FC_INT_QUAD             HAVE_FC_IOMSG     HAVE_FC_ISO_C_BINDING
 
  HAVE_FC_ISO_FORTRAN_2008        HAVE_FC_LONG_LINES        HAVE_FC_MOVE_ALLOC
 
  HAVE_FC_ON_THE_FLY_SHAPE           HAVE_FC_PRIVATE         HAVE_FC_PROTECTED
 
           HAVE_FC_SHIFTLR         HAVE_FC_STREAM_IO            HAVE_FC_SYSTEM
 
          HAVE_FORTRAN2003                 HAVE_HDF5        HAVE_LIBPAW_ABINIT
 
      HAVE_LIBTETRA_ABINIT                HAVE_LIBXC                  HAVE_MPI
 
                 HAVE_MPI2       HAVE_MPI_IALLGATHER       HAVE_MPI_IALLREDUCE
 
        HAVE_MPI_IALLTOALL       HAVE_MPI_IALLTOALLV           HAVE_MPI_IBCAST
 
         HAVE_MPI_IGATHERV        HAVE_MPI_INTEGER16               HAVE_MPI_IO
 
 HAVE_MPI_TYPE_CREATE_S...               HAVE_NETCDF       HAVE_NETCDF_FORTRAN
 
             HAVE_OS_LINUX         HAVE_TIMER_ABINIT                            
 ++++++++++++++++++++++++++++++++++++++++++++++++++++++++++++++++++++++++++++++

- input  file    -> Cs2TiI6.in
- output file    -> Cs2TiI6.out
- root for input  files -> Cs2TiI6i
- root for output files -> Cs2TiI6o

-instrng: 42 lines of input have been read from file Cs2TiI6.in


 Please give name of formatted atomic psp file (and finish with a newline character)
 For atom type 1, psp file is ../../../Psps_for_tests/ATOMICDATA_NC/Sn.psp8

 Please give name of formatted atomic psp file (and finish with a newline character)
 For atom type 2, psp file is ../../../Psps_for_tests/ATOMICDATA_NC/Se.psp8
  read the values zionpsp= 14.0 , pspcod=   8 , lmax=   2
  read the values zionpsp= 16.0 , pspcod=   8 , lmax=   2

 inpspheads: deduce mpsang = 3, n1xccc = 2501.

======================================================= 
 invars1m : enter jdtset= 0

 symlatt: the Bravais lattice is tP (primitive tetragonal)
  xred   is defined in input file
 ingeo: takes atomic coordinates from input array xred

--- !WARNING
src_file: m_ingeo.F90
src_line: 887
message: |
    The tolerance on symmetries =   1.000E-05 is bigger than 1.0e-8.
    In order to avoid spurious effects, the atomic coordinates have been
    symmetrized before storing them in the dataset internal variable.
    So, do not be surprised by the fact that your input variables (xcart, xred, ...)
    do not correspond to the ones echoed by ABINIT, the latter being used to do the calculations.
    In order to avoid this symmetrization (e.g. for specific debugging/development), decrease tolsym to 1.0e-8 or lower.
...


 symlatt: the Bravais lattice is tP (primitive tetragonal)

 symlatt: the Bravais lattice is tP (primitive tetragonal)
 symspgr: spgroup= 129  P4/n m m   (=D4h^7)
 symspgr: optical characteristics = uniaxial
 Optical axis (in reduced coordinates, real space ) :   0   0   1
 invars2: take the default value of fband=  1.25000000E-01

--- !WARNING
src_file: m_mpinfo.F90
src_line: 2281
message: |
    nkpt*nsppol (10) is not a multiple of nproc_kpt (6)
    The k-point parallelisation is inefficient. (Ignore this warning if this is not a GS run)
...

 For input ecut=  2.250000E+01 best grid ngfft=      36      36     144
       max ecut=  2.334283E+01

 ==== FFT mesh ====
  FFT mesh divisions ........................    36   36  144
  Augmented FFT divisions ...................    37   37  144
  FFT algorithm .............................   112
  FFT cache size ............................    16
 getmpw: optimal value of mpw= 10196

 Symmetries : space group P4/n m m (#129); Bravais tP (primitive tetrag.)

 getdim_nloc : deduce lmnmax  =  18, lnmax  =   6,
                      lmnmaxso=  18, lnmaxso=   6.
memory: analysis of memory needs
================================================================================
 Values of the parameters that define the memory need of the present run
     intxc =       0    ionmov =       0      iscf =      17    lmnmax =       6
     lnmax =       6     mgfft =     144  mpssoang =       3    mqgrid =    7069
     natom =       8  nloc_mem =       1    nspden =       1   nspinor =       1
    nsppol =       1      nsym =      16    n1xccc =    2501    ntypat =       2
    occopt =       1   xclevel =       2
-    mband =          61        mffmem =           1         mkmem =           2
       mpw =       10196          nfft =      186624          nkpt =          10
================================================================================
P This job should need less than                      85.688 Mbytes of memory.
  Rough estimation (10% accuracy) of disk space for files :
_ WF disk file :     94.905 Mbytes ; DEN or POT disk file :      1.426 Mbytes.
================================================================================

 Biggest array : f_fftgr(disk), with     22.7833 MBytes.
 memana : allocated an array of     22.783 Mbytes, for testing purposes.
 memana: allocated      85.688Mbytes, for testing purposes. 
 The job will continue.
--------------------------------------------------------------------------------
------------- Echo of variables that govern the present computation ------------
--------------------------------------------------------------------------------
-
- outvars: echo of selected default values                                      
-   iomode0 =  0 , fftalg0 =112 , wfoptalg0 =  0
-
- outvars: echo of global parameters not present in the input file              
-  max_nthreads =    0
-
 -outvars: echo values of preprocessed input variables --------
 
 These variables are accessible in NetCDF format (Cs2TiI6o_OUT.nc)

            acell      7.7624316804E+00  7.7624316804E+00  7.7624316804E+00 Bohr
              amu      1.18710000E+02  7.89600000E+01
           diemac      1.20000000E+01
             ecut      2.25000000E+01 Hartree
-          fftalg         112
             iscf          17
              ixc          11
              kpt      6.25000000E-02  6.25000000E-02  5.00000000E-01
                       1.87500000E-01  6.25000000E-02  5.00000000E-01
                       3.12500000E-01  6.25000000E-02  5.00000000E-01
                       4.37500000E-01  6.25000000E-02  5.00000000E-01
                       1.87500000E-01  1.87500000E-01  5.00000000E-01
                       3.12500000E-01  1.87500000E-01  5.00000000E-01
                       4.37500000E-01  1.87500000E-01  5.00000000E-01
                       3.12500000E-01  3.12500000E-01  5.00000000E-01
                       4.37500000E-01  3.12500000E-01  5.00000000E-01
                       4.37500000E-01  4.37500000E-01  5.00000000E-01
         kptrlatt        8    0    0      0    8    0      0    0    1
          kptrlen      6.20994534E+01
P           mkmem           2
            natom           8
            nband          61
            ngfft          36      36     144
             nkpt          10
            nstep         150
             nsym          16
           ntypat           2
              occ      2.000000  2.000000  2.000000  2.000000  2.000000  2.000000
                       2.000000  2.000000  2.000000  2.000000  2.000000  2.000000
                       2.000000  2.000000  2.000000  2.000000  2.000000  2.000000
                       2.000000  2.000000  2.000000  2.000000  2.000000  2.000000
                       2.000000  2.000000  2.000000  2.000000  2.000000  2.000000
                       2.000000  2.000000  2.000000  2.000000  2.000000  2.000000
                       2.000000  2.000000  2.000000  2.000000  2.000000  2.000000
                       2.000000  2.000000  2.000000  2.000000  2.000000  2.000000
                       2.000000  2.000000  2.000000  2.000000  2.000000  2.000000
                       2.000000  2.000000  2.000000  2.000000  2.000000  2.000000
                       0.000000
           prtcif           1
            rprim      1.0000000000E+00  0.0000000000E+00  0.0000000000E+00
                       0.0000000000E+00  1.0000000000E+00  0.0000000000E+00
                       0.0000000000E+00  0.0000000000E+00  4.2647429147E+00
           shiftk      5.00000000E-01  5.00000000E-01  5.00000000E-01
          spgroup         129
           symrel      1  0  0   0  1  0   0  0  1      -1  0  0   0 -1  0   0  0 -1
                      -1  0  0   0  1  0   0  0 -1       1  0  0   0 -1  0   0  0  1
                      -1  0  0   0 -1  0   0  0  1       1  0  0   0  1  0   0  0 -1
                       1  0  0   0 -1  0   0  0 -1      -1  0  0   0  1  0   0  0  1
                       0  1  0   1  0  0   0  0  1       0 -1  0  -1  0  0   0  0 -1
                       0 -1  0   1  0  0   0  0 -1       0  1  0  -1  0  0   0  0  1
                       0 -1  0  -1  0  0   0  0  1       0  1  0   1  0  0   0  0 -1
                       0  1  0  -1  0  0   0  0 -1       0 -1  0   1  0  0   0  0  1
            tnons      0.0000000  0.0000000  0.0000000     0.5000000  0.5000000  0.0000000
                       0.5000000  0.5000000  0.0000000     0.0000000  0.0000000  0.0000000
                      -0.0000000  0.0000000  0.0000000     0.5000000  0.5000000  0.0000000
                       0.5000000  0.5000000  0.0000000    -0.0000000  0.0000000  0.0000000
                       0.5000000  0.5000000  0.0000000     0.0000000 -0.0000000  0.0000000
                       0.0000000 -0.0000000  0.0000000     0.5000000  0.5000000  0.0000000
                       0.5000000  0.5000000  0.0000000     0.0000000  0.0000000  0.0000000
                       0.0000000  0.0000000  0.0000000     0.5000000  0.5000000  0.0000000
           toldfe      1.00000000E-06 Hartree
            typat      1  1  1  1  2  2  2  2
           vdw_xc           5
              wtk        0.06250    0.12500    0.12500    0.12500    0.06250    0.12500
                         0.12500    0.06250    0.12500    0.06250
           xangst      2.0538509643E+00  0.0000000000E+00  4.6664702533E+00
                       0.0000000000E+00  2.0538509643E+00  7.4160889198E+00
                       2.0538509643E+00  0.0000000000E+00  1.0102203775E+01
                       0.0000000000E+00  2.0538509643E+00  1.2851822442E+01
                       0.0000000000E+00  2.0538509643E+00  4.6982309179E+00
                       2.0538509643E+00  0.0000000000E+00  7.3843282551E+00
                       0.0000000000E+00  2.0538509643E+00  1.0133964440E+01
                       2.0538509643E+00  0.0000000000E+00  1.2820061777E+01
            xcart      3.8812158402E+00  0.0000000000E+00  8.8183507859E+00
                       0.0000000000E+00  3.8812158402E+00  1.4014377036E+01
                       3.8812158402E+00  0.0000000000E+00  1.9090398474E+01
                       0.0000000000E+00  3.8812158402E+00  2.4286424724E+01
                       0.0000000000E+00  3.8812158402E+00  8.8783697439E+00
                       3.8812158402E+00  0.0000000000E+00  1.3954358078E+01
                       0.0000000000E+00  3.8812158402E+00  1.9150417432E+01
                       3.8812158402E+00  0.0000000000E+00  2.4226405766E+01
             xred      5.0000000000E-01  0.0000000000E+00  2.6637700000E-01
                       0.0000000000E+00  5.0000000000E-01  4.2333400000E-01
                       5.0000000000E-01  0.0000000000E+00  5.7666600000E-01
                       0.0000000000E+00  5.0000000000E-01  7.3362300000E-01
                       0.0000000000E+00  5.0000000000E-01  2.6819000000E-01
                       5.0000000000E-01  0.0000000000E+00  4.2152100000E-01
                       0.0000000000E+00  5.0000000000E-01  5.7847900000E-01
                       5.0000000000E-01  0.0000000000E+00  7.3181000000E-01
            znucl       50.00000   34.00000

================================================================================

 chkinp: Checking input parameters for consistency.
 DATA TYPE INFORMATION: 
 REAL:      Data type name: REAL(DP) 
            Kind value:      8
            Precision:      15
            Smallest nonnegligible quantity relative to 1: 0.22204460E-015
            Smallest positive number:                      0.22250739E-307
            Largest representable number:                  0.17976931E+309
 INTEGER:   Data type name: INTEGER(default) 
            Kind value: 4
            Bit size:   32
            Largest representable number: 2147483647
 LOGICAL:   Data type name: LOGICAL 
            Kind value: 4
 CHARACTER: Data type name: CHARACTER             Kind value: 1

  ==== OpenMP parallelism is OFF ====
 
  ==== Using MPI-2 specifications ==== 
  MPI-IO support is ON
  xmpi_tag_ub ................   2147483647
  xmpi_bsize_ch ..............            1
  xmpi_bsize_int .............            4
  xmpi_bsize_sp ..............            4
  xmpi_bsize_dp ..............            8
  xmpi_bsize_spc .............            8
  xmpi_bsize_dpc .............           16
  xmpio_bsize_frm ............            4
  xmpi_address_kind ..........            8
  xmpi_offset_kind ...........            8
  MPI_WTICK ..................    1.0000000000000001E-009

================================================================================
== DATASET  1 ==================================================================
-   mpi_nproc: 6, omp_nthreads: -1 (-1 if OMP is not activated)


--- !COMMENT
src_file: m_xgScalapack.F90
src_line: 236
message: |
    xgScalapack in auto mode
...


 getdim_nloc : deduce lmnmax  =  18, lnmax  =   6,
                      lmnmaxso=  18, lnmaxso=   6.
 Exchange-correlation functional for the present dataset will be:
  GGA: Perdew-Burke-Ernzerhof functional - ixc=11
 Citation for XC functional:
  J.P.Perdew, K.Burke, M.Ernzerhof, PRL 77, 3865 (1996)

 Unit cell volume ucvol=  1.9947397E+03 bohr^3
 Angles (23,13,12)=  9.00000000E+01  9.00000000E+01  9.00000000E+01 degrees

 getcut: wavevector=  0.0000  0.0000  0.0000  ngfft=  36  36 144
         ecut(hartree)=     22.500   => boxcut(ratio)=   2.03711
- pspini: atom type   1  psp file is ../../../Psps_for_tests/ATOMICDATA_NC/Sn.psp8
- pspatm: opening atomic psp file    ../../../Psps_for_tests/ATOMICDATA_NC/Sn.psp8
- Sn    ONCVPSP  r_core=  2.27  2.62  1.86
- 50.00000  14.00000    150810                znucl, zion, pspdat
    8   11    2    4       600   0.00000      pspcod,pspxc,lmax,lloc,mmax,r2well
    5.99000000000000    6.50000000000000    0.00000000000000   rchrg,fchrg,qchrg
     nproj     2     2     2
     extension_switch     1
  valence charge integrates to:    13.912521222389802     
  pspatm : epsatm=   32.65190642
         --- l  ekb(1:nproj) -->
             0    5.462393    0.682281
             1    4.443814    0.825686
             2   -5.382195   -1.704077
 pspatm: atomic psp has been read  and splines computed

- pspini: atom type   2  psp file is ../../../Psps_for_tests/ATOMICDATA_NC/Se.psp8
- pspatm: opening atomic psp file    ../../../Psps_for_tests/ATOMICDATA_NC/Se.psp8
- Se    ONCVPSP  r_core=  1.82  1.50  1.91
- 34.00000  16.00000    150729                znucl, zion, pspdat
    8   11    2    4       600   0.00000      pspcod,pspxc,lmax,lloc,mmax,r2well
    5.99000000000000    5.00000000000000    0.00000000000000   rchrg,fchrg,qchrg
     nproj     2     2     2
     extension_switch     1
  valence charge integrates to:    15.981819523532332     
  pspatm : epsatm=   29.53325930
         --- l  ekb(1:nproj) -->
             0    8.612261    0.939919
             1    6.984962    1.281898
             2   -9.322521   -3.856218
 pspatm: atomic psp has been read  and splines computed

   2.98488795E+04                                ecore*ucvol(ha*bohr**3)
 ==== Info on pseudopotentials ====
  Norm-conserving pseudopotentials
  Number of pseudopotentials ..    2
  Number of types of atoms   ..    2
  Scalar calculation (no spin-orbit term)
  Nonlocal part applied using Legendre polynomials
  Max number of non-local projectors over l and type   2
  Highest angular momentum +1 .......   3
  Max number of (l,n)   components ..   6
  Max number of (l,m,n) components ..   6

 Pseudo-Core Charge Info: 
   Number of radial points for pseudo-core charge .. 2501
   XC core-correction treatment (optnlxccc) ........    1
   Radius for pseudo-core charge for each type ..... 

  - Atom type    1 has pseudo-core radius ..  5.9900
  - Atom type    2 has pseudo-core radius ..  5.9900

 Info on the Q-grid used for form factors in spline form: 
   Number of q-points for radial functions ffspl ..   7069
   Number of q-points for vlspl ...................   7069
   vloc is computed in Reciprocal Space
   model core charge treated in real-space

  XC functional for type 1 is 11
  Pseudo valence available: yes
  XC functional for type 2 is 11
  Pseudo valence available: yes

 wfconv:    61 bands initialized randomly with npw= 10196, for ikpt=     1
 wfconv:    61 bands initialized randomly with npw= 10182, for ikpt=     2
_setup2: Arith. and geom. avg. npw (full set) are   10167.125   10167.116
 initro: for itypat=  1, take pseudo charge density from pp file
 initro: for itypat=  2, take pseudo charge density from pp file

================================================================================

 getcut: wavevector=  0.0000  0.0000  0.0000  ngfft=  36  36 144
         ecut(hartree)=     22.500   => boxcut(ratio)=   2.03711

 1/G**2 cut-off applied in the following step : cutoff-mode = CRYSTAL

  --------------------------------------------------------------
  Van der Waals DFT-D2 semi-empirical dispersion potential added
      with following parameters:
      Specie  C6 (J.nm^6.mol^-1)  R0 (Ang)
      ------------------------------------
         Sn           38.71         1.804
         Se           12.64         1.771

      Scaling factor   =   0.75
      Damping parameter=  20.00
      Cut-off radius   = 130.92 bohr

      Number of pairs contributing =   169016
      DFT-D2 energy contribution   =   -9.93701E-02 Ha
  --------------------------------------------------------------


 1/G**2 cut-off applied in the following step : cutoff-mode = CRYSTAL

 1/G**2 cut-off applied in the following step : cutoff-mode = CRYSTAL

--- !WARNING
src_file: m_drivexc.F90
src_line: 707
message: |
    Density went too small (lower than xc_denpos) at 12746 points
    and was set to xc_denpos =   1.00E-14. Lowest was  -0.42E-03.
    Likely due to too low boxcut or too low ecut for pseudopotential core charge.
...


 ITER STEP NUMBER     1
 vtorho: nnsclo_now = 2, note that nnsclo, dbl_nnsclo, istep= 0 0 1
 Total charge density [el/Bohr^3]
      Maximum=    2.0948E+00  at reduced coord.    0.0000    0.5833    0.5694
      Minimum=    2.5743E-03  at reduced coord.    0.2222    0.2778    0.0069
   Integrated=    1.2000E+02
 ETOT  1  -779.74059295881    -7.797E+02 8.689E-01 2.023E+02
 scprqt: <Vxc>= -2.8553513E-01 hartree

 Simple mixing update:
  residual square of the potential:    157.87404290145355

 1/G**2 cut-off applied in the following step : cutoff-mode = CRYSTAL
 scfcv_core: previous iteration took 19.29 [s]

 ITER STEP NUMBER     2
 vtorho: nnsclo_now = 2, note that nnsclo, dbl_nnsclo, istep= 0 0 2
 Total charge density [el/Bohr^3]
      Maximum=    2.2537E+00  at reduced coord.    0.9722    0.5556    0.5625
      Minimum=    1.3508E-05  at reduced coord.    0.3889    0.0000    0.0069
   Integrated=    1.2000E+02
 ETOT  2  -797.21735711021    -1.748E+01 8.274E-02 1.440E+02
 scprqt: <Vxc>= -3.0117567E-01 hartree

 Pulay update with  1 previous iterations:
 mixing of old trial potential: alpha(m:m-4)=  0.562      0.438
 scfcv_core: previous iteration took 18.35 [s]

 ITER STEP NUMBER     3
 vtorho: nnsclo_now = 1, note that nnsclo, dbl_nnsclo, istep= 0 0 3
 Total charge density [el/Bohr^3]
      Maximum=    2.2255E+00  at reduced coord.    0.5000    0.9444    0.7500
      Minimum=    6.4115E-06  at reduced coord.    0.0000    0.0000    0.0000
   Integrated=    1.2000E+02
 ETOT  3  -795.95240750111     1.265E+00 1.747E-02 1.239E+01
 scprqt: <Vxc>= -2.9806904E-01 hartree

 Pulay update with  2 previous iterations:
 mixing of old trial potential: alpha(m:m-4)=   1.20     -0.250      0.483E-01
 scfcv_core: previous iteration took  9.38 [s]

 ITER STEP NUMBER     4
 vtorho: nnsclo_now = 1, note that nnsclo, dbl_nnsclo, istep= 0 0 4
 Total charge density [el/Bohr^3]
      Maximum=    2.2118E+00  at reduced coord.    0.9444    0.5556    0.5903
      Minimum=    6.2243E-06  at reduced coord.    0.0000    0.0000    0.0000
   Integrated=    1.2000E+02
 ETOT  4  -795.76998490486     1.824E-01 1.188E-02 2.219E-01
 scprqt: <Vxc>= -2.9411886E-01 hartree

 Pulay update with  3 previous iterations:
 mixing of old trial potential: alpha(m:m-4)=   1.09     -0.125      0.331E-01  0.404E-02
 scfcv_core: previous iteration took  9.42 [s]

 ITER STEP NUMBER     5
 vtorho: nnsclo_now = 1, note that nnsclo, dbl_nnsclo, istep= 0 0 5
 Total charge density [el/Bohr^3]
      Maximum=    2.2106E+00  at reduced coord.    0.5556    0.9444    0.7431
      Minimum=    6.5417E-06  at reduced coord.    0.0000    0.0000    0.0000
   Integrated=    1.2000E+02
 ETOT  5  -795.76090750612     9.077E-03 1.868E-03 1.215E-01
 scprqt: <Vxc>= -2.9181799E-01 hartree

 Pulay update with  4 previous iterations:
 mixing of old trial potential: alpha(m:m-4)=  0.639      0.441     -0.111      0.291E-01  0.122E-02
 scfcv_core: previous iteration took  9.51 [s]

 ITER STEP NUMBER     6
 vtorho: nnsclo_now = 1, note that nnsclo, dbl_nnsclo, istep= 0 0 6
 Total charge density [el/Bohr^3]
      Maximum=    2.2101E+00  at reduced coord.    0.9444    0.5556    0.5903
      Minimum=    6.5619E-06  at reduced coord.    0.0000    0.0000    0.0000
   Integrated=    1.2000E+02
 ETOT  6  -795.75742095926     3.487E-03 6.832E-04 1.978E-02
 scprqt: <Vxc>= -2.9024660E-01 hartree

 Pulay update with  5 previous iterations:
 mixing of old trial potential: alpha(m:m-4)=   1.27     -0.113     -0.181      0.335E-01 -0.759E-02
 scfcv_core: previous iteration took  9.47 [s]

 ITER STEP NUMBER     7
 vtorho: nnsclo_now = 1, note that nnsclo, dbl_nnsclo, istep= 0 0 7
 Total charge density [el/Bohr^3]
      Maximum=    2.2102E+00  at reduced coord.    0.9444    0.5556    0.5903
      Minimum=    7.1025E-06  at reduced coord.    0.0000    0.0000    0.0000
   Integrated=    1.2000E+02
 ETOT  7  -795.75463160183     2.789E-03 5.904E-04 8.894E-03
 scprqt: <Vxc>= -2.8789025E-01 hartree

 Pulay update with  6 previous iterations:
 mixing of old trial potential: alpha(m:m-4)=  0.824      0.321     -0.725E-01 -0.884E-01  0.209E-01
 scfcv_core: previous iteration took  9.51 [s]

 ITER STEP NUMBER     8
 vtorho: nnsclo_now = 1, note that nnsclo, dbl_nnsclo, istep= 0 0 8
 Total charge density [el/Bohr^3]
      Maximum=    2.2101E+00  at reduced coord.    0.9444    0.5556    0.5903
      Minimum=    7.2941E-06  at reduced coord.    0.0000    0.0000    0.0000
   Integrated=    1.2000E+02
 ETOT  8  -795.75375802928     8.736E-04 1.651E-04 5.139E-03
 scprqt: <Vxc>= -2.8666481E-01 hartree

 Pulay update with  7 previous iterations:
 mixing of old trial potential: alpha(m:m-4)=   1.61     -0.297     -0.431      0.580E-01  0.695E-01
 scfcv_core: previous iteration took  9.55 [s]

 ITER STEP NUMBER     9
 vtorho: nnsclo_now = 1, note that nnsclo, dbl_nnsclo, istep= 0 0 9
 Total charge density [el/Bohr^3]
      Maximum=    2.2101E+00  at reduced coord.    0.9444    0.5556    0.5903
      Minimum=    7.7656E-06  at reduced coord.    0.0000    0.0000    0.0000
   Integrated=    1.2000E+02
 ETOT  9  -795.75303274581     7.253E-04 1.734E-04 1.906E-03
 scprqt: <Vxc>= -2.8452800E-01 hartree

 Pulay update with  7 previous iterations:
 mixing of old trial potential: alpha(m:m-4)=   1.58     -0.677      0.773E-02  0.843E-01  0.101E-02
 scfcv_core: previous iteration took  9.36 [s]

 ITER STEP NUMBER    10
 vtorho: nnsclo_now = 1, note that nnsclo, dbl_nnsclo, istep= 0 0 10
 Total charge density [el/Bohr^3]
      Maximum=    2.2101E+00  at reduced coord.    0.9444    0.5556    0.5903
      Minimum=    7.8939E-06  at reduced coord.    0.0000    0.0000    0.0000
   Integrated=    1.2000E+02
 ETOT 10  -795.75298592909     4.682E-05 1.403E-04 6.158E-04
 scprqt: <Vxc>= -2.8277086E-01 hartree

 Pulay update with  7 previous iterations:
 mixing of old trial potential: alpha(m:m-4)=   1.26      0.942E-02 -0.342     -0.127E-01  0.913E-01
 scfcv_core: previous iteration took  9.51 [s]

 ITER STEP NUMBER    11
 vtorho: nnsclo_now = 1, note that nnsclo, dbl_nnsclo, istep= 0 0 11
 Total charge density [el/Bohr^3]
      Maximum=    2.2101E+00  at reduced coord.    0.9444    0.5556    0.5903
      Minimum=    7.8867E-06  at reduced coord.    0.0000    0.0000    0.0000
   Integrated=    1.2000E+02
 ETOT 11  -795.75308384102    -9.791E-05 1.298E-04 1.557E-04
 scprqt: <Vxc>= -2.8111011E-01 hartree

 Pulay update with  7 previous iterations:
 mixing of old trial potential: alpha(m:m-4)=   1.14      0.266     -0.475      0.118     -0.571E-01
 scfcv_core: previous iteration took  9.40 [s]

 ITER STEP NUMBER    12
 vtorho: nnsclo_now = 1, note that nnsclo, dbl_nnsclo, istep= 0 0 12
 Total charge density [el/Bohr^3]
      Maximum=    2.2101E+00  at reduced coord.    0.9444    0.5556    0.5903
      Minimum=    7.7544E-06  at reduced coord.    0.0000    0.0000    0.0000
   Integrated=    1.2000E+02
 ETOT 12  -795.75317181951    -8.798E-05 9.905E-05 1.300E-05
 scprqt: <Vxc>= -2.7936493E-01 hartree

 Pulay update with  7 previous iterations:
 mixing of old trial potential: alpha(m:m-4)=   1.06      0.105     -0.151     -0.440E-01  0.278E-01
 scfcv_core: previous iteration took  9.46 [s]

 ITER STEP NUMBER    13
 vtorho: nnsclo_now = 1, note that nnsclo, dbl_nnsclo, istep= 0 0 13
 Total charge density [el/Bohr^3]
      Maximum=    2.2101E+00  at reduced coord.    0.9444    0.5556    0.5903
      Minimum=    7.6298E-06  at reduced coord.    0.0000    0.0000    0.0000
   Integrated=    1.2000E+02
 ETOT 13  -795.75319287648    -2.106E-05 8.205E-05 6.920E-07
 scprqt: <Vxc>= -2.7852452E-01 hartree

 Pulay update with  7 previous iterations:
 mixing of old trial potential: alpha(m:m-4)=   1.05      0.412E-01 -0.751E-01 -0.392E-01  0.106E-01
 scfcv_core: previous iteration took  9.06 [s]

 ITER STEP NUMBER    14
 vtorho: nnsclo_now = 1, note that nnsclo, dbl_nnsclo, istep= 0 0 14
 Total charge density [el/Bohr^3]
      Maximum=    2.2101E+00  at reduced coord.    0.9444    0.5556    0.5903
      Minimum=    7.6246E-06  at reduced coord.    0.0000    0.0000    0.0000
   Integrated=    1.2000E+02
 ETOT 14  -795.75319365018    -7.737E-07 5.835E-05 3.017E-08
 scprqt: <Vxc>= -2.7839090E-01 hartree

 Pulay update with  7 previous iterations:
 mixing of old trial potential: alpha(m:m-4)=  0.919      0.146     -0.464E-01 -0.261E-01 -0.282E-02
 scfcv_core: previous iteration took  9.06 [s]

 ITER STEP NUMBER    15
 vtorho: nnsclo_now = 1, note that nnsclo, dbl_nnsclo, istep= 0 0 15
 Total charge density [el/Bohr^3]
      Maximum=    2.2101E+00  at reduced coord.    0.9444    0.5556    0.5903
      Minimum=    7.6222E-06  at reduced coord.    0.0000    0.0000    0.0000
   Integrated=    1.2000E+02
 ETOT 15  -795.75319366246    -1.228E-08 4.585E-05 4.074E-09
 scprqt: <Vxc>= -2.7838549E-01 hartree

 At SCF step   15, etot is converged : 
  for the second time, diff in etot=  1.228E-08 < toldfe=  1.000E-06

 Cartesian components of stress tensor (hartree/bohr^3)
  sigma(1 1)=  1.14755176E-02  sigma(3 2)=  0.00000000E+00
  sigma(2 2)=  1.14755176E-02  sigma(3 1)=  0.00000000E+00
  sigma(3 3)=  1.13490642E-02  sigma(2 1)=  0.00000000E+00


   fftdatar_write: About to write data to: Cs2TiI6o_DEN with iomode: IO_MODE_FORTRAN
 IO operation completed. cpu:  0.00 [s] , wall:  0.00 [s] <<< TIME
- Creating netcdf file WITHOUT MPI-IO support: Cs2TiI6o_GSR.nc
 Integrated electronic density in atomic spheres:
 ------------------------------------------------
 Atom  Sphere_radius  Integrated_density
    1        2.00000         10.53711320
    2        2.00000         10.57644800
    3        2.00000         10.57644800
    4        2.00000         10.53711320
    5        2.00000         13.29216951
    6        2.00000         13.32293582
    7        2.00000         13.32293582
    8        2.00000         13.29216951
================================================================================

 ----iterations are completed or convergence reached----


 === Gap info ===
  >>>> For spin  1
   Minimum direct gap =   0.7081 [eV], located at k-point      :   0.4375  0.0625  0.5000
   Fundamental gap    =   0.6043 [eV], Top of valence bands at :   0.1875  0.1875  0.5000
                                       Bottom of conduction at :   0.4375  0.0625  0.5000
 Mean square residual over all n,k,spin=   99.271E-09; max=  45.848E-06
   0.0625  0.0625  0.5000    1  4.26422E-11 kpt; spin; max resid(k); each band:
   1.32E-12  2.84E-13  1.18E-12  3.69E-13  5.46E-13  1.04E-12  2.45E-12  1.60E-12
   6.38E-12  4.43E-12  2.84E-12  4.08E-13  1.79E-12  1.06E-12  1.45E-12  4.24E-13
   1.55E-12  1.73E-12  4.33E-12  5.46E-12  6.14E-13  6.93E-13  5.19E-14  1.48E-14
   9.19E-14  1.33E-13  4.09E-13  2.67E-13  2.41E-13  4.99E-13  7.59E-13  4.32E-13
   4.50E-14  2.66E-13  1.25E-13  1.39E-13  2.15E-13  1.26E-13  3.27E-13  3.73E-13
   3.47E-12  6.99E-12  5.48E-12  7.89E-12  3.46E-12  3.35E-12  3.36E-12  3.80E-12
   4.51E-12  2.98E-12  3.49E-12  5.30E-12  5.46E-12  5.50E-12  3.09E-12  5.71E-12
   5.34E-12  5.28E-12  4.72E-12  5.66E-12  4.26E-11
   0.1875  0.0625  0.5000    1  1.17073E-10 kpt; spin; max resid(k); each band:
   7.85E-13  1.03E-12  8.15E-13  4.87E-13  9.07E-13  8.89E-13  1.38E-12  1.70E-12
   1.17E-12  8.25E-13  5.25E-13  7.66E-13  1.50E-12  1.06E-12  4.74E-13  1.47E-12
   1.73E-12  2.04E-12  1.07E-12  8.36E-13  5.59E-13  6.37E-13  8.48E-14  1.26E-13
   5.43E-14  1.36E-13  3.04E-13  3.54E-13  6.59E-13  2.70E-13  3.06E-13  2.94E-13
   1.07E-13  1.25E-13  1.61E-13  7.79E-14  1.22E-13  1.21E-13  1.28E-13  1.84E-13
   3.24E-12  6.78E-12  5.04E-12  7.78E-12  3.69E-12  2.82E-12  3.22E-12  3.79E-12
   4.72E-12  3.09E-12  5.21E-12  4.71E-12  4.14E-12  5.67E-12  5.05E-12  5.32E-12
   5.79E-12  4.57E-12  6.94E-12  1.38E-11  1.17E-10
   0.3125  0.0625  0.5000    1  7.85930E-06 kpt; spin; max resid(k); each band:
   1.06E-12  5.40E-13  8.41E-13  5.68E-13  1.22E-12  8.10E-13  6.92E-13  5.71E-13
   1.50E-12  2.64E-12  7.50E-13  2.13E-13  1.03E-12  1.11E-12  1.12E-12  6.84E-13
   2.47E-12  1.92E-12  1.59E-12  6.65E-13  4.87E-13  5.62E-13  5.46E-14  2.61E-13
   3.27E-13  2.71E-13  4.99E-13  2.47E-13  4.14E-13  4.83E-13  3.45E-13  4.67E-13
   1.07E-13  1.73E-13  1.18E-13  1.09E-13  1.90E-13  2.22E-13  1.47E-13  1.46E-13
   2.61E-12  5.51E-12  3.88E-12  6.66E-12  3.56E-12  2.61E-12  2.74E-12  3.68E-12
   4.54E-12  3.24E-12  5.37E-12  3.70E-12  5.72E-12  3.98E-12  5.70E-12  5.81E-12
   5.28E-12  6.46E-12  2.23E-11  3.35E-11  7.86E-06
   0.4375  0.0625  0.5000    1  4.58476E-05 kpt; spin; max resid(k); each band:
   1.26E-12  1.02E-12  6.29E-13  6.10E-13  8.23E-13  7.37E-13  6.86E-13  8.87E-13
   2.60E-12  2.43E-12  3.45E-13  1.07E-12  1.30E-12  8.69E-13  1.25E-12  4.87E-13
   2.42E-12  1.67E-12  1.21E-12  2.24E-12  4.23E-13  4.89E-13  2.00E-13  2.01E-13
   1.48E-13  2.03E-13  3.32E-13  3.70E-13  5.24E-13  4.20E-13  3.57E-13  3.76E-13
   1.04E-13  1.74E-13  4.06E-13  2.37E-13  1.11E-13  8.23E-14  2.28E-13  1.04E-13
   1.18E-12  1.19E-12  2.40E-12  1.86E-12  3.47E-12  3.27E-12  3.09E-12  3.48E-12
   4.15E-12  4.10E-12  2.93E-12  3.35E-12  6.51E-12  7.63E-12  2.79E-12  5.55E-12
   6.70E-12  6.98E-12  2.17E-11  2.36E-10  4.58E-05
   0.1875  0.1875  0.5000    1  4.85316E-06 kpt; spin; max resid(k); each band:
   1.25E-12  4.03E-13  3.72E-13  4.23E-13  2.64E-13  3.54E-13  1.80E-14  1.88E-12
   2.31E-12  4.03E-12  7.33E-13  1.30E-12  9.16E-14  4.18E-14  8.10E-13  1.41E-12
   3.15E-12  2.50E-12  1.47E-12  7.11E-13  5.29E-13  5.75E-13  1.25E-13  5.17E-14
   3.27E-13  6.17E-14  4.82E-13  2.70E-13  2.32E-13  4.89E-13  6.44E-13  2.67E-13
   1.18E-13  7.12E-14  1.10E-13  1.80E-13  5.92E-14  2.70E-13  2.97E-13  1.96E-13
   2.99E-12  6.39E-12  4.52E-12  7.42E-12  3.57E-12  2.79E-12  3.09E-12  4.06E-12
   2.92E-12  4.76E-12  4.81E-12  3.05E-12  5.24E-12  4.89E-12  4.65E-12  6.60E-12
   4.37E-12  7.89E-12  6.12E-12  1.35E-11  4.85E-06
   0.3125  0.1875  0.5000    1  2.33717E-07 kpt; spin; max resid(k); each band:
   7.45E-13  4.54E-13  6.75E-13  8.84E-13  1.43E-12  1.52E-12  7.74E-14  1.84E-12
   1.26E-12  1.33E-12  9.33E-13  5.50E-13  2.34E-13  1.62E-12  1.04E-12  8.00E-13
   1.10E-12  1.84E-12  2.35E-12  8.04E-13  4.12E-13  9.47E-14  6.08E-13  2.49E-13
   3.19E-13  1.19E-13  1.82E-13  2.13E-13  4.47E-13  3.89E-13  4.75E-13  5.12E-13
   3.36E-13  2.33E-13  1.40E-13  2.81E-13  1.32E-13  1.80E-13  5.70E-14  7.57E-14
   2.33E-12  4.79E-12  3.63E-12  5.81E-12  3.44E-12  2.87E-12  2.79E-12  3.91E-12
   2.94E-12  4.62E-12  4.65E-12  3.68E-12  4.41E-12  5.01E-12  6.09E-12  4.97E-12
   5.83E-12  9.97E-12  6.15E-12  7.68E-12  2.34E-07
   0.4375  0.1875  0.5000    1  5.36119E-07 kpt; spin; max resid(k); each band:
   1.61E-12  4.31E-13  3.95E-13  1.47E-12  8.85E-13  1.18E-12  5.54E-13  9.65E-13
   1.68E-12  3.34E-12  4.06E-13  3.43E-13  4.71E-13  1.11E-12  6.05E-13  3.37E-12
   8.86E-13  1.18E-12  3.28E-12  1.48E-12  3.62E-13  2.12E-13  2.95E-13  5.35E-13
   2.56E-13  3.06E-13  8.18E-14  4.50E-13  5.16E-13  2.57E-13  4.90E-13  4.99E-13
   5.34E-13  2.12E-13  1.76E-13  1.74E-13  2.97E-13  1.11E-13  6.45E-14  1.76E-13
   1.03E-12  9.75E-13  1.81E-12  2.09E-12  3.37E-12  3.26E-12  2.98E-12  3.50E-12
   2.89E-12  4.56E-12  4.07E-12  4.05E-12  5.71E-12  3.85E-12  4.86E-12  5.26E-12
   3.61E-12  3.58E-12  4.64E-12  5.73E-12  5.36E-07
   0.3125  0.3125  0.5000    1  1.93239E-10 kpt; spin; max resid(k); each band:
   1.67E-12  8.11E-13  4.41E-13  2.72E-13  8.19E-13  8.59E-13  2.15E-12  2.26E-13
   9.14E-13  1.89E-12  9.32E-13  8.36E-13  7.32E-13  1.86E-12  5.97E-13  2.59E-12
   1.16E-12  1.02E-12  9.84E-13  6.56E-13  6.50E-14  2.06E-13  5.12E-13  6.38E-13
   2.93E-13  4.98E-14  3.57E-13  2.09E-13  1.97E-13  2.49E-13  4.60E-13  1.01E-13
   3.67E-13  2.15E-13  2.92E-13  1.81E-13  1.38E-13  1.51E-13  5.11E-14  6.30E-14
   1.74E-12  2.97E-12  2.87E-12  3.93E-12  3.13E-12  3.39E-12  2.77E-12  3.74E-12
   2.86E-12  4.44E-12  4.70E-12  2.98E-12  4.51E-12  4.47E-12  2.90E-12  4.43E-12
   2.65E-12  4.15E-12  4.59E-12  6.74E-12  1.93E-10
   0.4375  0.3125  0.5000    1  7.02627E-08 kpt; spin; max resid(k); each band:
   1.12E-12  7.11E-13  6.21E-13  9.18E-13  6.55E-13  1.49E-12  4.80E-13  1.05E-12
   1.56E-12  2.20E-12  1.32E-12  1.18E-12  5.87E-14  2.73E-13  2.18E-12  1.27E-12
   1.34E-12  1.52E-12  7.36E-13  2.54E-12  2.15E-13  1.87E-13  6.74E-13  6.27E-13
   2.85E-13  2.44E-13  4.74E-13  2.72E-13  5.51E-13  4.59E-13  4.03E-13  5.15E-13
   4.87E-13  4.92E-13  2.55E-13  1.30E-13  1.32E-13  1.51E-13  4.99E-14  5.22E-14
   7.62E-13  6.48E-13  1.44E-12  1.76E-12  3.05E-12  3.28E-12  2.99E-12  3.39E-12
   2.80E-12  4.45E-12  4.21E-12  4.81E-12  4.54E-12  4.94E-12  4.64E-12  3.80E-12
   3.03E-12  3.89E-12  5.03E-12  6.38E-12  7.03E-08
   0.4375  0.4375  0.5000    1  1.15367E-06 kpt; spin; max resid(k); each band:
   4.93E-13  7.08E-13  3.28E-13  1.46E-13  1.93E-12  1.22E-12  2.14E-12  2.82E-13
   1.32E-12  5.04E-12  1.76E-12  9.13E-14  3.25E-13  4.26E-13  2.24E-12  1.53E-12
   2.05E-12  1.46E-12  6.26E-13  4.45E-12  1.09E-13  1.17E-13  7.39E-13  6.99E-13
   5.01E-13  2.00E-13  4.55E-13  5.54E-13  2.40E-13  4.56E-14  4.37E-13  1.01E-13
   5.39E-13  4.64E-13  1.16E-13  1.29E-13  2.79E-13  2.47E-13  3.15E-14  5.12E-14
   4.63E-13  3.89E-13  1.12E-12  1.42E-12  2.68E-12  3.08E-12  3.31E-12  2.74E-12
   2.83E-12  2.90E-12  4.28E-12  4.41E-12  2.92E-12  3.74E-12  4.31E-12  4.27E-12
   4.62E-12  3.74E-12  5.10E-12  6.02E-12  1.15E-06

   outwf: writing wavefunctions to: Cs2TiI6o_WFK with iomode: IO_MODE_FORTRAN_MASTER
 WFK output completed. cpu:  0.15 [s] , wall:  0.15 [s] <<< TIME
 prteigrs : about to open file Cs2TiI6o_EIG
 Fermi (or HOMO) energy (hartree) =   0.09452   Average Vxc (hartree)=  -0.27839
 Eigenvalues (hartree) for nkpt=  10  k points:
 kpt#   1, nband= 61, wtk=  0.06250, kpt=  0.0625  0.0625  0.5000 (reduced coord)
  -1.71811   -1.71667   -1.71649   -1.71499   -1.71304   -1.71297   -1.71126   -1.70988
  -1.70847   -1.70812   -1.69310   -1.69276   -1.69246   -1.69217   -1.68969   -1.68872
  -1.68841   -1.68818   -1.68644   -1.68620   -0.70818   -0.70689   -0.70634   -0.70613
  -0.70581   -0.70557   -0.70518   -0.70510   -0.70497   -0.70478   -0.70469   -0.70434
  -0.70388   -0.70387   -0.70386   -0.70353   -0.70352   -0.70344   -0.70297   -0.70290
  -0.45971   -0.43628   -0.40489   -0.39340   -0.17579   -0.16411   -0.13374   -0.11115
  -0.08897   -0.07167   -0.05538   -0.04629   -0.03011   -0.01661   -0.01600   -0.00329
  -0.00109    0.01676    0.02771    0.07095    0.14597
 kpt#   2, nband= 61, wtk=  0.12500, kpt=  0.1875  0.0625  0.5000 (reduced coord)
  -1.71620   -1.71408   -1.71400   -1.71317   -1.71226   -1.71173   -1.71087   -1.70960
  -1.70862   -1.70836   -1.69298   -1.69158   -1.69154   -1.69092   -1.68959   -1.68919
  -1.68863   -1.68775   -1.68724   -1.68605   -0.70728   -0.70621   -0.70597   -0.70592
  -0.70564   -0.70552   -0.70490   -0.70489   -0.70463   -0.70457   -0.70457   -0.70452
  -0.70394   -0.70377   -0.70372   -0.70359   -0.70357   -0.70350   -0.70341   -0.70334
  -0.45357   -0.43150   -0.40182   -0.39329   -0.19099   -0.18355   -0.15646   -0.12796
  -0.09963   -0.07017   -0.04491   -0.03724   -0.01677   -0.00722   -0.00312    0.00072
   0.00350    0.04595    0.04658    0.08068    0.13746
 kpt#   3, nband= 61, wtk=  0.12500, kpt=  0.3125  0.0625  0.5000 (reduced coord)
  -1.71468   -1.71349   -1.71315   -1.71253   -1.71135   -1.70848   -1.70835   -1.70811
  -1.70794   -1.70545   -1.69165   -1.69012   -1.68926   -1.68914   -1.68813   -1.68773
  -1.68703   -1.68636   -1.68589   -1.68462   -0.70672   -0.70620   -0.70572   -0.70535
  -0.70520   -0.70517   -0.70482   -0.70466   -0.70461   -0.70450   -0.70445   -0.70418
  -0.70382   -0.70351   -0.70351   -0.70332   -0.70318   -0.70317   -0.70310   -0.70288
  -0.44244   -0.42419   -0.39778   -0.39469   -0.21144   -0.20512   -0.18290   -0.15986
  -0.09049   -0.05419   -0.03017   -0.02519   -0.01998    0.00039    0.00640    0.01161
   0.03333    0.06692    0.07230    0.09188    0.13305
 kpt#   4, nband= 61, wtk=  0.12500, kpt=  0.4375  0.0625  0.5000 (reduced coord)
  -1.71484   -1.71421   -1.71395   -1.71353   -1.71199   -1.71118   -1.71104   -1.71096
  -1.70689   -1.70671   -1.69228   -1.69197   -1.69100   -1.69003   -1.68925   -1.68850
  -1.68835   -1.68744   -1.68643   -1.68571   -0.70654   -0.70629   -0.70595   -0.70581
  -0.70538   -0.70522   -0.70501   -0.70497   -0.70484   -0.70476   -0.70440   -0.70427
  -0.70386   -0.70383   -0.70373   -0.70363   -0.70334   -0.70327   -0.70320   -0.70307
  -0.42937   -0.42114   -0.39673   -0.39617   -0.22300   -0.21944   -0.19528   -0.18551
  -0.07120   -0.04729   -0.02977   -0.01170   -0.00411   -0.00189    0.01002    0.01629
   0.06464    0.07665    0.08452    0.09071    0.11673
 kpt#   5, nband= 61, wtk=  0.06250, kpt=  0.1875  0.1875  0.5000 (reduced coord)
  -1.71468   -1.71368   -1.71336   -1.71101   -1.71078   -1.70945   -1.70870   -1.70814
  -1.70622   -1.70496   -1.69060   -1.69044   -1.68958   -1.68904   -1.68863   -1.68739
  -1.68678   -1.68555   -1.68544   -1.68342   -0.70719   -0.70606   -0.70546   -0.70545
  -0.70534   -0.70513   -0.70466   -0.70458   -0.70454   -0.70451   -0.70434   -0.70422
  -0.70352   -0.70341   -0.70335   -0.70322   -0.70320   -0.70319   -0.70308   -0.70304
  -0.44759   -0.42695   -0.39870   -0.39254   -0.19616   -0.18809   -0.16357   -0.13785
  -0.09663   -0.09381   -0.07027   -0.03818   -0.02252   -0.01992   -0.00977    0.01362
   0.03836    0.06283    0.07199    0.09452    0.13388
 kpt#   6, nband= 61, wtk=  0.12500, kpt=  0.3125  0.1875  0.5000 (reduced coord)
  -1.71602   -1.71476   -1.71398   -1.71286   -1.71101   -1.71033   -1.70918   -1.70861
  -1.70850   -1.70770   -1.69206   -1.69155   -1.68986   -1.68982   -1.68922   -1.68783
  -1.68779   -1.68756   -1.68741   -1.68613   -0.70692   -0.70637   -0.70607   -0.70584
  -0.70513   -0.70505   -0.70492   -0.70479   -0.70463   -0.70462   -0.70450   -0.70420
  -0.70405   -0.70400   -0.70365   -0.70365   -0.70341   -0.70341   -0.70308   -0.70294
  -0.43696   -0.42020   -0.39449   -0.39247   -0.20682   -0.19977   -0.17768   -0.15820
  -0.09730   -0.08513   -0.06979   -0.04187   -0.02538   -0.02419   -0.01170    0.00420
   0.04895    0.05512    0.06589    0.09053    0.12693
 kpt#   7, nband= 61, wtk=  0.12500, kpt=  0.4375  0.1875  0.5000 (reduced coord)
  -1.71666   -1.71432   -1.71420   -1.71320   -1.71196   -1.71155   -1.71076   -1.71018
  -1.70848   -1.70816   -1.69286   -1.69175   -1.69118   -1.69104   -1.68984   -1.68861
  -1.68788   -1.68769   -1.68703   -1.68601   -0.70699   -0.70656   -0.70606   -0.70597
  -0.70522   -0.70522   -0.70510   -0.70499   -0.70477   -0.70473   -0.70469   -0.70433
  -0.70411   -0.70410   -0.70370   -0.70359   -0.70331   -0.70328   -0.70313   -0.70311
  -0.42490   -0.41761   -0.39293   -0.39244   -0.21453   -0.21132   -0.18600   -0.17810
  -0.07659   -0.07039   -0.05166   -0.04862   -0.04299   -0.03341   -0.00941   -0.00116
   0.03193    0.04035    0.05537    0.06517    0.14025
 kpt#   8, nband= 61, wtk=  0.06250, kpt=  0.3125  0.3125  0.5000 (reduced coord)
  -1.71657   -1.71601   -1.71565   -1.71413   -1.71048   -1.71039   -1.71006   -1.70983
  -1.70921   -1.70818   -1.69316   -1.69210   -1.69155   -1.69126   -1.69080   -1.68945
  -1.68818   -1.68756   -1.68680   -1.68650   -0.70698   -0.70683   -0.70602   -0.70597
  -0.70522   -0.70506   -0.70500   -0.70496   -0.70472   -0.70469   -0.70459   -0.70456
  -0.70450   -0.70449   -0.70387   -0.70375   -0.70362   -0.70359   -0.70285   -0.70283
  -0.42759   -0.41465   -0.38982   -0.38946   -0.20137   -0.19508   -0.16975   -0.15958
  -0.12412   -0.09706   -0.07101   -0.06365   -0.04273   -0.04222   -0.03721   -0.01549
   0.01367    0.02758    0.04536    0.06868    0.14517
 kpt#   9, nband= 61, wtk=  0.12500, kpt=  0.4375  0.3125  0.5000 (reduced coord)
  -1.71726   -1.71505   -1.71404   -1.71337   -1.71247   -1.71087   -1.71055   -1.70979
  -1.70939   -1.70925   -1.69286   -1.69187   -1.69098   -1.69037   -1.68959   -1.68953
  -1.68895   -1.68824   -1.68794   -1.68762   -0.70748   -0.70712   -0.70610   -0.70606
  -0.70520   -0.70506   -0.70496   -0.70491   -0.70481   -0.70479   -0.70465   -0.70438
  -0.70431   -0.70423   -0.70383   -0.70374   -0.70367   -0.70354   -0.70296   -0.70288
  -0.41779   -0.41257   -0.38719   -0.38685   -0.19909   -0.19671   -0.16791   -0.16542
  -0.11639   -0.09539   -0.08224   -0.07213   -0.06114   -0.05865   -0.03686   -0.02984
  -0.01724   -0.00120    0.04112    0.05437    0.16225
 kpt#  10, nband= 61, wtk=  0.06250, kpt=  0.4375  0.4375  0.5000 (reduced coord)
  -1.71597   -1.71471   -1.71413   -1.71358   -1.71188   -1.71038   -1.71021   -1.70986
  -1.70979   -1.70910   -1.69265   -1.69042   -1.69020   -1.68988   -1.68925   -1.68913
  -1.68899   -1.68821   -1.68748   -1.68691   -0.70740   -0.70724   -0.70626   -0.70601
  -0.70513   -0.70502   -0.70500   -0.70495   -0.70487   -0.70463   -0.70453   -0.70448
  -0.70446   -0.70424   -0.70384   -0.70365   -0.70342   -0.70333   -0.70274   -0.70268
  -0.41149   -0.40955   -0.38280   -0.38268   -0.18298   -0.18200   -0.15281   -0.14327
  -0.14032   -0.11312   -0.11296   -0.10087   -0.07900   -0.06937   -0.05693   -0.04446
  -0.03710   -0.03142    0.04562    0.05081    0.17866
 Total charge density [el/Bohr^3]
      Maximum=    2.2101E+00  at reduced coord.    0.9444    0.5556    0.5903
 Next maximum=    2.2101E+00  at reduced coord.    0.0556    0.5556    0.5903
      Minimum=    7.6222E-06  at reduced coord.    0.0000    0.0000    0.0000
 Next minimum=    7.6222E-06  at reduced coord.    0.5000    0.5000    0.0000
   Integrated=    1.2000E+02

 Cartesian components of stress tensor (hartree/bohr^3)
  sigma(1 1)=  1.14755176E-02  sigma(3 2)=  0.00000000E+00
  sigma(2 2)=  1.14755176E-02  sigma(3 1)=  0.00000000E+00
  sigma(3 3)=  1.13490642E-02  sigma(2 1)=  0.00000000E+00

-Cartesian components of stress tensor (GPa)         [Pressure= -3.3638E+02 GPa]
- sigma(1 1)=  3.37621327E+02  sigma(3 2)=  0.00000000E+00
- sigma(2 2)=  3.37621327E+02  sigma(3 1)=  0.00000000E+00
- sigma(3 3)=  3.33900941E+02  sigma(2 1)=  0.00000000E+00

== END DATASET(S) ==============================================================
================================================================================
  
 -outvars: echo values of variables after computation  --------
 
 These variables are accessible in NetCDF format (Cs2TiI6o_OUT.nc)

            acell      7.7624316804E+00  7.7624316804E+00  7.7624316804E+00 Bohr
              amu      1.18710000E+02  7.89600000E+01
           diemac      1.20000000E+01
             ecut      2.25000000E+01 Hartree
           etotal     -7.9575319366E+02
            fcart     -4.4461150867E-32 -0.0000000000E+00 -1.1499245350E-02
                      -4.4461150867E-32 -0.0000000000E+00 -1.5347487728E-02
                       1.0797708068E-31 -0.0000000000E+00  1.5347487728E-02
                      -4.4461150867E-32 -0.0000000000E+00  1.1499245350E-02
                      -4.4461150867E-32 -0.0000000000E+00 -1.4884548922E-02
                      -4.4461150867E-32 -0.0000000000E+00 -1.3054790277E-02
                      -4.4461150867E-32 -0.0000000000E+00  1.3054790277E-02
                       1.5878982452E-31 -0.0000000000E+00  1.4884548922E-02
-          fftalg         112
             iscf          17
              ixc          11
              kpt      6.25000000E-02  6.25000000E-02  5.00000000E-01
                       1.87500000E-01  6.25000000E-02  5.00000000E-01
                       3.12500000E-01  6.25000000E-02  5.00000000E-01
                       4.37500000E-01  6.25000000E-02  5.00000000E-01
                       1.87500000E-01  1.87500000E-01  5.00000000E-01
                       3.12500000E-01  1.87500000E-01  5.00000000E-01
                       4.37500000E-01  1.87500000E-01  5.00000000E-01
                       3.12500000E-01  3.12500000E-01  5.00000000E-01
                       4.37500000E-01  3.12500000E-01  5.00000000E-01
                       4.37500000E-01  4.37500000E-01  5.00000000E-01
         kptrlatt        8    0    0      0    8    0      0    0    1
          kptrlen      6.20994534E+01
P           mkmem           2
            natom           8
            nband          61
            ngfft          36      36     144
             nkpt          10
            nstep         150
             nsym          16
           ntypat           2
              occ      2.000000  2.000000  2.000000  2.000000  2.000000  2.000000
                       2.000000  2.000000  2.000000  2.000000  2.000000  2.000000
                       2.000000  2.000000  2.000000  2.000000  2.000000  2.000000
                       2.000000  2.000000  2.000000  2.000000  2.000000  2.000000
                       2.000000  2.000000  2.000000  2.000000  2.000000  2.000000
                       2.000000  2.000000  2.000000  2.000000  2.000000  2.000000
                       2.000000  2.000000  2.000000  2.000000  2.000000  2.000000
                       2.000000  2.000000  2.000000  2.000000  2.000000  2.000000
                       2.000000  2.000000  2.000000  2.000000  2.000000  2.000000
                       2.000000  2.000000  2.000000  2.000000  2.000000  2.000000
                       0.000000
           prtcif           1
            rprim      1.0000000000E+00  0.0000000000E+00  0.0000000000E+00
                       0.0000000000E+00  1.0000000000E+00  0.0000000000E+00
                       0.0000000000E+00  0.0000000000E+00  4.2647429147E+00
           shiftk      5.00000000E-01  5.00000000E-01  5.00000000E-01
          spgroup         129
           strten      1.1475517578E-02  1.1475517578E-02  1.1349064231E-02
                       0.0000000000E+00  0.0000000000E+00  0.0000000000E+00
           symrel      1  0  0   0  1  0   0  0  1      -1  0  0   0 -1  0   0  0 -1
                      -1  0  0   0  1  0   0  0 -1       1  0  0   0 -1  0   0  0  1
                      -1  0  0   0 -1  0   0  0  1       1  0  0   0  1  0   0  0 -1
                       1  0  0   0 -1  0   0  0 -1      -1  0  0   0  1  0   0  0  1
                       0  1  0   1  0  0   0  0  1       0 -1  0  -1  0  0   0  0 -1
                       0 -1  0   1  0  0   0  0 -1       0  1  0  -1  0  0   0  0  1
                       0 -1  0  -1  0  0   0  0  1       0  1  0   1  0  0   0  0 -1
                       0  1  0  -1  0  0   0  0 -1       0 -1  0   1  0  0   0  0  1
            tnons      0.0000000  0.0000000  0.0000000     0.5000000  0.5000000  0.0000000
                       0.5000000  0.5000000  0.0000000     0.0000000  0.0000000  0.0000000
                      -0.0000000  0.0000000  0.0000000     0.5000000  0.5000000  0.0000000
                       0.5000000  0.5000000  0.0000000    -0.0000000  0.0000000  0.0000000
                       0.5000000  0.5000000  0.0000000     0.0000000 -0.0000000  0.0000000
                       0.0000000 -0.0000000  0.0000000     0.5000000  0.5000000  0.0000000
                       0.5000000  0.5000000  0.0000000     0.0000000  0.0000000  0.0000000
                       0.0000000  0.0000000  0.0000000     0.5000000  0.5000000  0.0000000
           toldfe      1.00000000E-06 Hartree
            typat      1  1  1  1  2  2  2  2
           vdw_xc           5
              wtk        0.06250    0.12500    0.12500    0.12500    0.06250    0.12500
                         0.12500    0.06250    0.12500    0.06250
           xangst      2.0538509643E+00  0.0000000000E+00  4.6664702533E+00
                       0.0000000000E+00  2.0538509643E+00  7.4160889198E+00
                       2.0538509643E+00  0.0000000000E+00  1.0102203775E+01
                       0.0000000000E+00  2.0538509643E+00  1.2851822442E+01
                       0.0000000000E+00  2.0538509643E+00  4.6982309179E+00
                       2.0538509643E+00  0.0000000000E+00  7.3843282551E+00
                       0.0000000000E+00  2.0538509643E+00  1.0133964440E+01
                       2.0538509643E+00  0.0000000000E+00  1.2820061777E+01
            xcart      3.8812158402E+00  0.0000000000E+00  8.8183507859E+00
                       0.0000000000E+00  3.8812158402E+00  1.4014377036E+01
                       3.8812158402E+00  0.0000000000E+00  1.9090398474E+01
                       0.0000000000E+00  3.8812158402E+00  2.4286424724E+01
                       0.0000000000E+00  3.8812158402E+00  8.8783697439E+00
                       3.8812158402E+00  0.0000000000E+00  1.3954358078E+01
                       0.0000000000E+00  3.8812158402E+00  1.9150417432E+01
                       3.8812158402E+00  0.0000000000E+00  2.4226405766E+01
             xred      5.0000000000E-01  0.0000000000E+00  2.6637700000E-01
                       0.0000000000E+00  5.0000000000E-01  4.2333400000E-01
                       5.0000000000E-01  0.0000000000E+00  5.7666600000E-01
                       0.0000000000E+00  5.0000000000E-01  7.3362300000E-01
                       0.0000000000E+00  5.0000000000E-01  2.6819000000E-01
                       5.0000000000E-01  0.0000000000E+00  4.2152100000E-01
                       0.0000000000E+00  5.0000000000E-01  5.7847900000E-01
                       5.0000000000E-01  0.0000000000E+00  7.3181000000E-01
            znucl       50.00000   34.00000

================================================================================
  

================================================================================

 Suggested references for the acknowledgment of ABINIT usage.

 The users of ABINIT have little formal obligations with respect to the ABINIT group
 (those specified in the GNU General Public License, http://www.gnu.org/copyleft/gpl.txt).
 However, it is common practice in the scientific literature,
 to acknowledge the efforts of people that have made the research possible.
 In this spirit, please find below suggested citations of work written by ABINIT developers,
 corresponding to implementations inside of ABINIT that you have used in the present run.
 Note also that it will be of great value to readers of publications presenting these results,
 to read papers enabling them to understand the theoretical formalism and details
 of the ABINIT implementation.
 For information on why they are suggested, see also https://docs.abinit.org/theory/acknowledgments.
-
- [1] The Abinit project: Impact, environment and recent developments.
- Computer Phys. Comm. 248, 107042 (2020).
- X.Gonze, B. Amadon, G. Antonius, F.Arnardi, L.Baguet, J.-M.Beuken,
- J.Bieder, F.Bottin, J.Bouchet, E.Bousquet, N.Brouwer, F.Bruneval,
- G.Brunin, T.Cavignac, J.-B. Charraud, Wei Chen, M.Cote, S.Cottenier,
- J.Denier, G.Geneste, Ph.Ghosez, M.Giantomassi, Y.Gillet, O.Gingras,
- D.R.Hamann, G.Hautier, Xu He, N.Helbig, N.Holzwarth, Y.Jia, F.Jollet,
- W.Lafargue-Dit-Hauret, K.Lejaeghere, M.A.L.Marques, A.Martin, C.Martins,
- H.P.C. Miranda, F.Naccarato, K. Persson, G.Petretto, V.Planes, Y.Pouillon,
- S.Prokhorenko, F.Ricci, G.-M.Rignanese, A.H.Romero, M.M.Schmitt, M.Torrent,
- M.J.van Setten, B.Van Troeye, M.J.Verstraete, G.Zerah and J.W.Zwanzig
- Comment: the fifth generic paper describing the ABINIT project.
- Note that a version of this paper, that is not formatted for Computer Phys. Comm. 
- is available at https://www.abinit.org/sites/default/files/ABINIT20.pdf .
- The licence allows the authors to put it on the Web.
- DOI and bibtex: see https://docs.abinit.org/theory/bibliography/#gonze2020
-
- [2] Optimized norm-conserving Vanderbilt pseudopotentials.
- D.R. Hamann, Phys. Rev. B 88, 085117 (2013).
- Comment: Some pseudopotential generated using the ONCVPSP code were used.
- DOI and bibtex: see https://docs.abinit.org/theory/bibliography/#hamann2013
-
- [3] ABINIT: Overview, and focus on selected capabilities
- J. Chem. Phys. 152, 124102 (2020).
- A. Romero, D.C. Allan, B. Amadon, G. Antonius, T. Applencourt, L.Baguet,
- J.Bieder, F.Bottin, J.Bouchet, E.Bousquet, F.Bruneval,
- G.Brunin, D.Caliste, M.Cote,
- J.Denier, C. Dreyer, Ph.Ghosez, M.Giantomassi, Y.Gillet, O.Gingras,
- D.R.Hamann, G.Hautier, F.Jollet, G. Jomard,
- A.Martin, 
- H.P.C. Miranda, F.Naccarato, G.Petretto, N.A. Pike, V.Planes,
- S.Prokhorenko, T. Rangel, F.Ricci, G.-M.Rignanese, M.Royo, M.Stengel, M.Torrent,
- M.J.van Setten, B.Van Troeye, M.J.Verstraete, J.Wiktor, J.W.Zwanziger, and X.Gonze.
- Comment: a global overview of ABINIT, with focus on selected capabilities .
- Note that a version of this paper, that is not formatted for J. Chem. Phys 
- is available at https://www.abinit.org/sites/default/files/ABINIT20_JPC.pdf .
- The licence allows the authors to put it on the Web.
- DOI and bibtex: see https://docs.abinit.org/theory/bibliography/#romero2020
-
- [4] Recent developments in the ABINIT software package.
- Computer Phys. Comm. 205, 106 (2016).
- X.Gonze, F.Jollet, F.Abreu Araujo, D.Adams, B.Amadon, T.Applencourt,
- C.Audouze, J.-M.Beuken, J.Bieder, A.Bokhanchuk, E.Bousquet, F.Bruneval
- D.Caliste, M.Cote, F.Dahm, F.Da Pieve, M.Delaveau, M.Di Gennaro,
- B.Dorado, C.Espejo, G.Geneste, L.Genovese, A.Gerossier, M.Giantomassi,
- Y.Gillet, D.R.Hamann, L.He, G.Jomard, J.Laflamme Janssen, S.Le Roux,
- A.Levitt, A.Lherbier, F.Liu, I.Lukacevic, A.Martin, C.Martins,
- M.J.T.Oliveira, S.Ponce, Y.Pouillon, T.Rangel, G.-M.Rignanese,
- A.H.Romero, B.Rousseau, O.Rubel, A.A.Shukri, M.Stankovski, M.Torrent,
- M.J.Van Setten, B.Van Troeye, M.J.Verstraete, D.Waroquier, J.Wiktor,
- B.Xu, A.Zhou, J.W.Zwanziger.
- Comment: the fourth generic paper describing the ABINIT project.
- Note that a version of this paper, that is not formatted for Computer Phys. Comm. 
- is available at https://www.abinit.org/sites/default/files/ABINIT16.pdf .
- The licence allows the authors to put it on the Web.
- DOI and bibtex: see https://docs.abinit.org/theory/bibliography/#gonze2016
-
- And optionally:
-
- [5] ABINIT: First-principles approach of materials and nanosystem properties.
- Computer Phys. Comm. 180, 2582-2615 (2009).
- X. Gonze, B. Amadon, P.-M. Anglade, J.-M. Beuken, F. Bottin, P. Boulanger, F. Bruneval,
- D. Caliste, R. Caracas, M. Cote, T. Deutsch, L. Genovese, Ph. Ghosez, M. Giantomassi
- S. Goedecker, D.R. Hamann, P. Hermet, F. Jollet, G. Jomard, S. Leroux, M. Mancini, S. Mazevet,
- M.J.T. Oliveira, G. Onida, Y. Pouillon, T. Rangel, G.-M. Rignanese, D. Sangalli, R. Shaltaf,
- M. Torrent, M.J. Verstraete, G. Zerah, J.W. Zwanziger
- Comment: the third generic paper describing the ABINIT project.
- Note that a version of this paper, that is not formatted for Computer Phys. Comm. 
- is available at https://www.abinit.org/sites/default/files/ABINIT_CPC_v10.pdf .
- The licence allows the authors to put it on the Web.
- DOI and bibtex: see https://docs.abinit.org/theory/bibliography/#gonze2009
 Proc.   0 individual time (sec): cpu=        162.4  wall=        162.4

 Calculation completed.
.Delivered   0 WARNINGs and   0 COMMENTs to log file.

--- !FinalSummary
program: abinit
version: 9.2.2
start_datetime: Sat Feb 24 21:42:40 2024
end_datetime: Sat Feb 24 21:45:23 2024
overall_cpu_time:         974.4
overall_wall_time:         974.4
exit_requested_by_user: no 
timelimit: 0
pseudos: 
    Sn  : c918e999fc214fef37654f9ff7d5f03d
    Se  : f801923bd422df98a30264e8ccc86374
usepaw: 0
mpi_procs: 6
omp_threads: 1
num_warnings: 0
num_comments: 0
...
