
.Version 9.2.2 of ABINIT 
.(MPI version, prepared for a x86_64_linux_gnu9.3 computer) 

.Copyright (C) 1998-2020 ABINIT group . 
 ABINIT comes with ABSOLUTELY NO WARRANTY.
 It is free software, and you are welcome to redistribute it
 under certain conditions (GNU General Public License,
 see ~abinit/COPYING or http://www.gnu.org/copyleft/gpl.txt).

 ABINIT is a project of the Universite Catholique de Louvain,
 Corning Inc. and other collaborators, see ~abinit/doc/developers/contributors.txt .
 Please read https://docs.abinit.org/theory/acknowledgments for suggested
 acknowledgments of the ABINIT effort.
 For more information, see https://www.abinit.org .

.Starting date : Sun 17 Mar 2024.
- ( at 17h56 )
  
- The starting date is more than 3 years after the initial release
- of this version of ABINIT, namely Nov 2020.
- This version of ABINIT is not supported anymore.
- Action: please, switch to a more recent version of ABINIT.
- input  file    -> Cs2TiI6.in
- output file    -> Cs2TiI6.out
- root for input  files -> Cs2TiI6i
- root for output files -> Cs2TiI6o


 DATASET    1 : space group P4 m m (# 99); Bravais tP (primitive tetrag.)
================================================================================
 Values of the parameters that define the memory need for DATASET  1.
     intxc =       0    ionmov =       0      iscf =      17    lmnmax =       6
     lnmax =       6     mgfft =     288  mpssoang =       3    mqgrid =   13909
     natom =      20  nloc_mem =       1    nspden =       1   nspinor =       1
    nsppol =       1      nsym =       8    n1xccc =    2501    ntypat =       3
    occopt =       1   xclevel =       2
-    mband =         165        mffmem =           1         mkmem =           2
       mpw =       20066          nfft =      373248          nkpt =          10
================================================================================
P This job should need less than                     235.889 Mbytes of memory.
  Rough estimation (10% accuracy) of disk space for files :
_ WF disk file :    505.204 Mbytes ; DEN or POT disk file :      2.850 Mbytes.
================================================================================


 DATASET    2 : space group P4 m m (# 99); Bravais tP (primitive tetrag.)
================================================================================
 Values of the parameters that define the memory need for DATASET  2.
     intxc =       0    ionmov =       0      iscf =      -2    lmnmax =       6
     lnmax =       6     mgfft =     288  mpssoang =       3    mqgrid =   13909
     natom =      20  nloc_mem =       1    nspden =       1   nspinor =       1
    nsppol =       1      nsym =       8    n1xccc =    2501    ntypat =       3
    occopt =       1   xclevel =       2
-    mband =         165        mffmem =           1         mkmem =          10
       mpw =       20127          nfft =      373248          nkpt =          57
================================================================================
P This job should need less than                     589.682 Mbytes of memory.
  Rough estimation (10% accuracy) of disk space for files :
_ WF disk file :   2888.406 Mbytes ; DEN or POT disk file :      2.850 Mbytes.
================================================================================


 DATASET    3 : space group P4 m m (# 99); Bravais tP (primitive tetrag.)
================================================================================
 Values of the parameters that define the memory need for DATASET  3.
     intxc =       0    ionmov =       0      iscf =      -3    lmnmax =       6
     lnmax =       6     mgfft =     288  mpssoang =       3    mqgrid =   13909
     natom =      20  nloc_mem =       1    nspden =       1   nspinor =       1
    nsppol =       1      nsym =       8    n1xccc =    2501    ntypat =       3
    occopt =       1   xclevel =       2
-    mband =         165        mffmem =           1         mkmem =           2
       mpw =       20066          nfft =      373248          nkpt =          10
================================================================================
P This job should need less than                     178.936 Mbytes of memory.
  Rough estimation (10% accuracy) of disk space for files :
_ WF disk file :    505.204 Mbytes ; DEN or POT disk file :      2.850 Mbytes.
================================================================================

--------------------------------------------------------------------------------
------------- Echo of variables that govern the present computation ------------
--------------------------------------------------------------------------------
-
- outvars: echo of selected default values                                      
-   iomode0 =  0 , fftalg0 =112 , wfoptalg0 =  0
-
- outvars: echo of global parameters not present in the input file              
-  max_nthreads =    0
-
 -outvars: echo values of preprocessed input variables --------
            acell      7.7624316804E+00  7.7624316804E+00  7.7624316804E+00 Bohr
              amu      1.18710000E+02  7.89600000E+01  6.53900000E+01
           diemac      1.20000000E+01
        dosdeltae1     0.00000000E+00 Hartree
        dosdeltae2     0.00000000E+00 Hartree
        dosdeltae3     1.00000000E-03 Hartree
             ecut      2.25000000E+01 Hartree
-          fftalg         112
           getden1          0
           getden2          1
           getden3          1
           getwfk1          0
           getwfk2          0
           getwfk3          1
           iatsph3       1    9   18   19
             iscf1         17
             iscf2         -2
             iscf3         -3
           istwfk2       7    0    0    0    0    0    0    0    0    0
                         4    0    0    0    0    0    0    0    0    0
                         0    0    2    0    0    0    0    0    0    0
                         0    0    0    0    0    0    0    0    0    0
                         9    0    0    0    0    0    0    0    8    0
              ixc     -101130
           jdtset        1    2    3
              kpt1     6.25000000E-02  6.25000000E-02  5.00000000E-01
                       1.87500000E-01  6.25000000E-02  5.00000000E-01
                       3.12500000E-01  6.25000000E-02  5.00000000E-01
                       4.37500000E-01  6.25000000E-02  5.00000000E-01
                       1.87500000E-01  1.87500000E-01  5.00000000E-01
                       3.12500000E-01  1.87500000E-01  5.00000000E-01
                       4.37500000E-01  1.87500000E-01  5.00000000E-01
                       3.12500000E-01  3.12500000E-01  5.00000000E-01
                       4.37500000E-01  3.12500000E-01  5.00000000E-01
                       4.37500000E-01  4.37500000E-01  5.00000000E-01
              kpt2     5.00000000E-01  5.00000000E-01  0.00000000E+00
                       4.50000000E-01  4.50000000E-01  5.00000000E-02
                       4.00000000E-01  4.00000000E-01  1.00000000E-01
                       3.50000000E-01  3.50000000E-01  1.50000000E-01
                       3.00000000E-01  3.00000000E-01  2.00000000E-01
                       2.50000000E-01  2.50000000E-01  2.50000000E-01
                       2.00000000E-01  2.00000000E-01  3.00000000E-01
                       1.50000000E-01  1.50000000E-01  3.50000000E-01
                       1.00000000E-01  1.00000000E-01  4.00000000E-01
                       5.00000000E-02  5.00000000E-02  4.50000000E-01
                       0.00000000E+00  0.00000000E+00  5.00000000E-01
                       0.00000000E+00  0.00000000E+00  4.58333333E-01
                       0.00000000E+00  0.00000000E+00  4.16666667E-01
                       0.00000000E+00  0.00000000E+00  3.75000000E-01
                       0.00000000E+00  0.00000000E+00  3.33333333E-01
                       0.00000000E+00  0.00000000E+00  2.91666667E-01
                       0.00000000E+00  0.00000000E+00  2.50000000E-01
                       0.00000000E+00  0.00000000E+00  2.08333333E-01
                       0.00000000E+00  0.00000000E+00  1.66666667E-01
                       0.00000000E+00  0.00000000E+00  1.25000000E-01
                       0.00000000E+00  0.00000000E+00  8.33333333E-02
                       0.00000000E+00  0.00000000E+00  4.16666667E-02
                       0.00000000E+00  0.00000000E+00  0.00000000E+00
                       2.77777778E-02  2.77777778E-02  2.77777778E-02
                       5.55555556E-02  5.55555556E-02  5.55555556E-02
                       8.33333333E-02  8.33333333E-02  8.33333333E-02
                       1.11111111E-01  1.11111111E-01  1.11111111E-01
                       1.38888889E-01  1.38888889E-01  1.38888889E-01
                       1.66666667E-01  1.66666667E-01  1.66666667E-01
                       1.94444444E-01  1.94444444E-01  1.94444444E-01
                       2.22222222E-01  2.22222222E-01  2.22222222E-01
                       2.50000000E-01  2.50000000E-01  2.50000000E-01
                       2.77777778E-01  2.77777778E-01  2.77777778E-01
                       3.05555556E-01  3.05555556E-01  3.05555556E-01
                       3.33333333E-01  3.33333333E-01  3.33333333E-01
                       3.61111111E-01  3.61111111E-01  3.61111111E-01
                       3.88888889E-01  3.88888889E-01  3.88888889E-01
                       4.16666667E-01  4.16666667E-01  4.16666667E-01
                       4.44444444E-01  4.44444444E-01  4.44444444E-01
                       4.72222222E-01  4.72222222E-01  4.72222222E-01
                       5.00000000E-01  5.00000000E-01  5.00000000E-01
                       4.37500000E-01  5.00000000E-01  5.00000000E-01
                       3.75000000E-01  5.00000000E-01  5.00000000E-01
                       3.12500000E-01  5.00000000E-01  5.00000000E-01
                       2.50000000E-01  5.00000000E-01  5.00000000E-01
                       1.87500000E-01  5.00000000E-01  5.00000000E-01
                       1.25000000E-01  5.00000000E-01  5.00000000E-01
                       6.25000000E-02  5.00000000E-01  5.00000000E-01
                       0.00000000E+00  5.00000000E-01  5.00000000E-01
                       0.00000000E+00  5.00000000E-01  4.37500000E-01
              kpt3     6.25000000E-02  6.25000000E-02  5.00000000E-01
                       1.87500000E-01  6.25000000E-02  5.00000000E-01
                       3.12500000E-01  6.25000000E-02  5.00000000E-01
                       4.37500000E-01  6.25000000E-02  5.00000000E-01
                       1.87500000E-01  1.87500000E-01  5.00000000E-01
                       3.12500000E-01  1.87500000E-01  5.00000000E-01
                       4.37500000E-01  1.87500000E-01  5.00000000E-01
                       3.12500000E-01  3.12500000E-01  5.00000000E-01
                       4.37500000E-01  3.12500000E-01  5.00000000E-01
                       4.37500000E-01  4.37500000E-01  5.00000000E-01
                       outvar_i_n : Printing only first  50 k-points.
           kptopt1          1
           kptopt2         -5
           kptopt3          1
         kptrlatt        8    0    0      0    8    0      0    0    1
          kptrlen1     6.20994534E+01
          kptrlen2     3.00000000E+01
          kptrlen3     6.20994534E+01
P           mkmem1          2
P           mkmem2         10
P           mkmem3          2
            natom          20
           natsph3       4
            nband1        165
            nband2        165
            nband3        165
           nbdbuf1          0
           nbdbuf2          2
           nbdbuf3          2
           ndtset           3
            ngfft          36      36     288
             nkpt1         10
             nkpt2         57
             nkpt3         10
            nstep1        400
            nstep2        300
            nstep3        300
             nsym           8
           ntypat           3
              occ      2.000000  2.000000  2.000000  2.000000  2.000000  2.000000
                       2.000000  2.000000  2.000000  2.000000  2.000000  2.000000
                       2.000000  2.000000  2.000000  2.000000  2.000000  2.000000
                       2.000000  2.000000  2.000000  2.000000  2.000000  2.000000
                       2.000000  2.000000  2.000000  2.000000  2.000000  2.000000
                       2.000000  2.000000  2.000000  2.000000  2.000000  2.000000
                       2.000000  2.000000  2.000000  2.000000  2.000000  2.000000
                       2.000000  2.000000  2.000000  2.000000  2.000000  2.000000
                       2.000000  2.000000  2.000000  2.000000  2.000000  2.000000
                       2.000000  2.000000  2.000000  2.000000  2.000000  2.000000
                       2.000000  2.000000  2.000000  2.000000  2.000000  2.000000
                       2.000000  2.000000  2.000000  2.000000  2.000000  2.000000
                       2.000000  2.000000  2.000000  2.000000  2.000000  2.000000
                       2.000000  2.000000  2.000000  2.000000  2.000000  2.000000
                       2.000000  2.000000  2.000000  2.000000  2.000000  2.000000
                       2.000000  2.000000  2.000000  2.000000  2.000000  2.000000
                       2.000000  2.000000  2.000000  2.000000  2.000000  2.000000
                       2.000000  2.000000  2.000000  2.000000  2.000000  2.000000
                       2.000000  2.000000  2.000000  2.000000  2.000000  2.000000
                       2.000000  2.000000  2.000000  2.000000  2.000000  2.000000
                       2.000000  2.000000  2.000000  2.000000  2.000000  2.000000
                       2.000000  2.000000  2.000000  2.000000  2.000000  2.000000
                       2.000000  2.000000  2.000000  2.000000  2.000000  2.000000
                       2.000000  2.000000  2.000000  2.000000  2.000000  2.000000
                       2.000000  2.000000  2.000000  2.000000  2.000000  2.000000
                       2.000000  2.000000  2.000000  2.000000  2.000000  2.000000
                       0.000000  0.000000  0.000000  0.000000  0.000000  0.000000
                       0.000000  0.000000  0.000000
           prtcif           1
           prtdos1          0
           prtdos2          0
           prtdos3          3
            rprim      1.0000000000E+00  0.0000000000E+00  0.0000000000E+00
                       0.0000000000E+00  1.0000000000E+00  0.0000000000E+00
                       1.0000000000E-15  1.0000000000E-15  8.3913010243E+00
           shiftk      5.00000000E-01  5.00000000E-01  5.00000000E-01
          spgroup          99
           symrel      1  0  0   0  1  0   0  0  1       1  0  0   0 -1  0   0  0  1
                      -1  0  0   0 -1  0   0  0  1      -1  0  0   0  1  0   0  0  1
                       0  1  0   1  0  0   0  0  1       0  1  0  -1  0  0   0  0  1
                       0 -1  0  -1  0  0   0  0  1       0 -1  0   1  0  0   0  0  1
            tnons      0.0000000  0.0000000  0.0000000     0.0000000 -0.0000000  0.0000000
                      -0.0000000 -0.0000000  0.0000000    -0.0000000  0.0000000  0.0000000
                       0.5000000  0.5000000  0.0000000     0.5000000  0.5000000  0.0000000
                       0.5000000  0.5000000  0.0000000     0.5000000  0.5000000  0.0000000
           tolwfr      1.00000000E-20
            typat      1  1  1  1  1  1  1  1  2  2  2  2  2  2  2  2  2  2  3  3
           vdw_xc           5
              wtk1       0.06250    0.12500    0.12500    0.12500    0.06250    0.12500
                         0.12500    0.06250    0.12500    0.06250
              wtk2       1.00000    1.00000    1.00000    1.00000    1.00000    1.00000
                         1.00000    1.00000    1.00000    1.00000    1.00000    1.00000
                         1.00000    1.00000    1.00000    1.00000    1.00000    1.00000
                         1.00000    1.00000    1.00000    1.00000    1.00000    1.00000
                         1.00000    1.00000    1.00000    1.00000    1.00000    1.00000
                         1.00000    1.00000    1.00000    1.00000    1.00000    1.00000
                         1.00000    1.00000    1.00000    1.00000    1.00000    1.00000
                         1.00000    1.00000    1.00000    1.00000    1.00000    1.00000
                         1.00000    1.00000
              wtk3       0.06250    0.12500    0.12500    0.12500    0.06250    0.12500
                         0.12500    0.06250    0.12500    0.06250
                       outvars : Printing only first  50 k-points.
           xangst      2.0538509643E+00  5.5610890249E-16  4.6664772030E+00
                       8.8378439303E-16  2.0538509643E+00  7.4161008824E+00
                       2.0538509643E+00  1.2038893889E-15  1.0102198262E+01
                       1.5315648795E-15  2.0538509643E+00  1.2851821942E+01
                       2.0538509643E+00  1.8516698753E-15  1.5537919322E+01
                       2.1793453659E-15  2.0538509643E+00  1.8287543001E+01
                       2.0538509643E+00  2.4994503618E-15  2.0973640381E+01
                       2.8271299600E-15  2.0538509643E+00  2.3723298529E+01
                       5.5989209596E-16  2.0538509643E+00  4.6982231183E+00
                       2.0538509643E+00  8.7999709185E-16  7.3843204982E+00
                       1.2076766901E-15  2.0538509643E+00  1.0133978647E+01
                       2.0538509643E+00  1.5277816860E-15  1.2820076026E+01
                       1.8554571765E-15  2.0538509643E+00  1.5569699706E+01
                       2.0538509643E+00  2.1755621724E-15  1.8255797086E+01
                       2.5032376629E-15  2.0538509643E+00  2.1005420765E+01
                       2.0538509643E+00  2.8233426588E-15  2.3691518145E+01
                       2.0538509643E+00  3.1952704222E-15  2.6812475967E+01
                       3.5515930260E-15  2.0538509643E+00  2.9802486197E+01
                       2.0538509643E+00  2.0538509643E+00  2.8307498317E+01
                       3.3734337780E-15  3.3734337780E-15  2.8307498317E+01
            xcart      3.8812158402E+00  1.0508935258E-15  8.8183639191E+00
                       1.6701104633E-15  3.8812158402E+00  1.4014399642E+01
                       3.8812158402E+00  2.2750212393E-15  1.9090388056E+01
                       2.8942381769E-15  3.8812158402E+00  2.4286423778E+01
                       3.8812158402E+00  3.4991489529E-15  2.9362412193E+01
                       4.1183658905E-15  3.8812158402E+00  3.4558447915E+01
                       3.8812158402E+00  4.7232766665E-15  3.9634436329E+01
                       5.3425013665E-15  3.8812158402E+00  4.4830537189E+01
                       1.0580427253E-15  3.8812158402E+00  8.8783550048E+00
                       3.8812158402E+00  1.6629535013E-15  1.3954343419E+01
                       2.2821782013E-15  3.8812158402E+00  1.9150444278E+01
                       3.8812158402E+00  2.8870889773E-15  2.4226432693E+01
                       3.5063059149E-15  3.8812158402E+00  2.9422468415E+01
                       3.8812158402E+00  4.1112166909E-15  3.4498456829E+01
                       4.7304336285E-15  3.8812158402E+00  3.9694492552E+01
                       3.8812158402E+00  5.3353444045E-15  4.4770480966E+01
                       3.8812158402E+00  6.0381860185E-15  5.0668236522E+01
                       6.7115381547E-15  3.8812158402E+00  5.6318536992E+01
                       3.8812158402E+00  3.8812158402E+00  5.3493419325E+01
                       6.3748659678E-15  6.3748659678E-15  5.3493419325E+01
             xred      5.0000000000E-01  2.5451086397E-32  1.3538200000E-01
                      -1.2553174550E-32  5.0000000000E-01  2.1515300000E-01
                       5.0000000000E-01 -2.5603026039E-32  2.9308100000E-01
                      -4.1574609594E-32  5.0000000000E-01  3.7285200000E-01
                       5.0000000000E-01 -5.4624461082E-32  4.5078000000E-01
                      -1.1466139942E-31  5.0000000000E-01  5.3055100000E-01
                       5.0000000000E-01  2.0200168819E-32  6.0847900000E-01
                      -7.4331858357E-32  5.0000000000E-01  6.8825100000E-01
                      -5.4468158982E-33  5.0000000000E-01  1.3630300000E-01
                       5.0000000000E-01 -1.8496667387E-32  2.1423100000E-01
                      -4.6930662386E-32  5.0000000000E-01  2.9400300000E-01
                       5.0000000000E-01 -1.0676707299E-32  3.7193100000E-01
                       2.7893967515E-32  5.0000000000E-01  4.5170200000E-01
                       5.0000000000E-01  9.6056642341E-33  5.2963000000E-01
                      -5.0431274105E-32  5.0000000000E-01  6.0940100000E-01
                       5.0000000000E-01 -1.1278493217E-31  6.8732900000E-01
                       5.0000000000E-01 -9.3691669479E-32  7.7787300000E-01
                      -1.0526112392E-31  5.0000000000E-01  8.6461800000E-01
                       5.0000000000E-01  5.0000000000E-01  8.2124600000E-01
                      -6.7420134542E-32 -6.7420134542E-32  8.2124600000E-01
            znucl       50.00000   34.00000   30.00000

================================================================================

 chkinp: Checking input parameters for consistency, jdtset=   1.

 chkinp: Checking input parameters for consistency, jdtset=   2.

 chkinp: Checking input parameters for consistency, jdtset=   3.

================================================================================
== DATASET  1 ==================================================================
-   mpi_nproc: 6, omp_nthreads: -1 (-1 if OMP is not activated)


--- !DatasetInfo
iteration_state: {dtset: 1, }
dimensions: {natom: 20, nkpt: 10, mband: 165, nsppol: 1, nspinor: 1, nspden: 1, mpw: 20066, }
cutoff_energies: {ecut:  22.5, pawecutdg:  -1.0, }
electrons: {nelect:   3.12000000E+02, charge:   0.00000000E+00, occopt:   1.00000000E+00, tsmear:   1.00000000E-02, }
meta: {optdriver: 0, ionmov: 0, optcell: 0, iscf: 17, paral_kgb: 0, }
...

 Real(R)+Recip(G) space primitive vectors, cartesian coordinates (Bohr,Bohr^-1):
 R(1)=  7.7624317  0.0000000  0.0000000  G(1)=  0.1288256  0.0000000  0.0000000
 R(2)=  0.0000000  7.7624317  0.0000000  G(2)=  0.0000000  0.1288256  0.0000000
 R(3)=  0.0000000  0.0000000 65.1369009  G(3)=  0.0000000  0.0000000  0.0153523
 Unit cell volume ucvol=  3.9248465E+03 bohr^3
 Angles (23,13,12)=  9.00000000E+01  9.00000000E+01  9.00000000E+01 degrees

 getcut: wavevector=  0.0000  0.0000  0.0000  ngfft=  36  36 288
         ecut(hartree)=     22.500   => boxcut(ratio)=   2.07066

--- Pseudopotential description ------------------------------------------------
- pspini: atom type   1  psp file is ../../../Psps_for_tests/ATOMICDATA_NC/Sn.psp8
- pspatm: opening atomic psp file    ../../../Psps_for_tests/ATOMICDATA_NC/Sn.psp8
- Sn    ONCVPSP  r_core=  2.27  2.62  1.86
- 50.00000  14.00000    150810                znucl, zion, pspdat
    8   11    2    4       600   0.00000      pspcod,pspxc,lmax,lloc,mmax,r2well
    5.99000000000000    6.50000000000000    0.00000000000000   rchrg,fchrg,qchrg
     nproj     2     2     2
     extension_switch     1
  pspatm : epsatm=   32.65190642
         --- l  ekb(1:nproj) -->
             0    5.462393    0.682281
             1    4.443814    0.825686
             2   -5.382195   -1.704077
 pspatm: atomic psp has been read  and splines computed

- pspini: atom type   2  psp file is ../../../Psps_for_tests/ATOMICDATA_NC/Se.psp8
- pspatm: opening atomic psp file    ../../../Psps_for_tests/ATOMICDATA_NC/Se.psp8
- Se    ONCVPSP  r_core=  1.82  1.50  1.91
- 34.00000  16.00000    150729                znucl, zion, pspdat
    8   11    2    4       600   0.00000      pspcod,pspxc,lmax,lloc,mmax,r2well
    5.99000000000000    5.00000000000000    0.00000000000000   rchrg,fchrg,qchrg
     nproj     2     2     2
     extension_switch     1
  pspatm : epsatm=   29.53325930
         --- l  ekb(1:nproj) -->
             0    8.612261    0.939919
             1    6.984962    1.281898
             2   -9.322521   -3.856218
 pspatm: atomic psp has been read  and splines computed

- pspini: atom type   3  psp file is ../../../Psps_for_tests/ATOMICDATA_NC/Zn.psp8
- pspatm: opening atomic psp file    ../../../Psps_for_tests/ATOMICDATA_NC/Zn.psp8
- Zn    ONCVPSP  r_core=  1.36  1.66  1.85
- 30.00000  20.00000    161102                znucl, zion, pspdat
    8   11    2    4       600   0.00000      pspcod,pspxc,lmax,lloc,mmax,r2well
    5.99000000000000    2.50000000000000    0.00000000000000   rchrg,fchrg,qchrg
     nproj     2     2     2
     extension_switch     1
  pspatm : epsatm=   26.67245340
         --- l  ekb(1:nproj) -->
             0    2.404235   -1.533451
             1   -4.677427   -1.530630
             2   -7.000316   -2.622858
 pspatm: atomic psp has been read  and splines computed

   1.90286538E+05                                ecore*ucvol(ha*bohr**3)
--------------------------------------------------------------------------------

_setup2: Arith. and geom. avg. npw (full set) are   20005.250   20005.239

================================================================================

--- !BeginCycle
iteration_state: {dtset: 1, }
solver: {iscf: 17, nstep: 400, nline: 4, wfoptalg: 0, }
tolerances: {tolwfr: 1.00E-20, }
...

     iter   Etot(hartree)      deltaE(h)  residm     nres2
 ETOT  1  -2223.4223039126    -2.223E+03 7.760E-01 1.938E+03
 ETOT  2  -2438.7516776596    -2.153E+02 4.034E-01 1.009E+04
 ETOT  3  -2316.7332679903     1.220E+02 2.331E+01 5.193E+03
 ETOT  4  -2614.7426670596    -2.980E+02 4.124E+00 1.049E+04
 ETOT  5  -2347.2327362208     2.675E+02 1.415E+00 5.211E+03
 ETOT  6  -2256.5630303866     9.067E+01 8.655E-01 3.543E+03
 ETOT  7  -2260.9188576139    -4.356E+00 2.155E+00 2.463E+03
 ETOT  8  -2257.1333197818     3.786E+00 8.043E+00 3.855E+03
 ETOT  9  -2223.5858445309     3.355E+01 4.691E+00 2.012E+03
 ETOT 10  -2366.3594200008    -1.428E+02 1.518E+00 4.606E+03
 ETOT 11  -2303.0813302624     6.328E+01 6.883E-01 3.412E+03
 ETOT 12  -2238.2535486829     6.483E+01 2.141E+00 6.415E+02
 ETOT 13  -2267.4521880662    -2.920E+01 9.779E-01 1.289E+03
 ETOT 14  -2267.9009747331    -4.488E-01 8.427E-02 1.302E+03
 ETOT 15  -2316.7707662674    -4.887E+01 1.651E+00 2.191E+03
 ETOT 16  -2245.6079231122     7.116E+01 1.480E+00 1.289E+03
 ETOT 17  -2554.3794965141    -3.088E+02 2.490E+01 6.207E+03
 ETOT 18  -2438.3023075402     1.161E+02 8.738E-01 6.275E+03
 ETOT 19  -2233.4668751249     2.048E+02 3.383E+00 1.868E+03
 ETOT 20  -2273.5931099131    -4.013E+01 5.996E+00 3.259E+03
 ETOT 21  -2269.0869432471     4.506E+00 6.071E+00 3.244E+03
 ETOT 22  -2295.1616605928    -2.607E+01 3.268E-01 3.221E+03
 ETOT 23  -2335.8124300551    -4.065E+01 5.124E-01 3.387E+03
 ETOT 24  -2346.5233735654    -1.071E+01 3.182E+00 4.096E+03
 ETOT 25  -2351.9764691682    -5.453E+00 2.776E-01 3.780E+03
 ETOT 26  -2390.5434337871    -3.857E+01 5.863E-01 7.058E+03
 ETOT 27  -2352.2892039323     3.825E+01 8.488E-02 6.754E+03
 ETOT 28  -2393.9494394719    -4.166E+01 4.546E+01 7.877E+03
 ETOT 29  -2839.0992668938    -4.451E+02 9.037E+00 1.437E+04
 ETOT 30  -2281.3097022389     5.578E+02 7.918E+00 5.788E+03
 ETOT 31  -2307.9787519056    -2.667E+01 2.913E+00 4.075E+03
 ETOT 32  -2317.0280956173    -9.049E+00 6.462E+00 4.204E+03
 ETOT 33  -2234.5588753664     8.247E+01 3.194E+00 1.675E+03
 ETOT 34  -2265.0054723585    -3.045E+01 2.660E+00 1.250E+03
 ETOT 35  -2272.7766641257    -7.771E+00 1.546E+00 1.104E+03
 ETOT 36  -2306.0656019063    -3.329E+01 1.709E+00 1.653E+03
 ETOT 37  -2351.5690423085    -4.550E+01 9.683E-01 4.161E+03
 ETOT 38  -2326.7962655015     2.477E+01 1.066E+00 1.907E+03
 ETOT 39  -2265.2785908353     6.152E+01 1.334E+00 1.451E+03
 ETOT 40  -2326.0660386306    -6.079E+01 3.149E+00 2.192E+03
 ETOT 41  -2302.7705751698     2.330E+01 1.744E+01 6.742E+03
 ETOT 42  -2215.3541926843     8.742E+01 1.161E+00 1.925E+03
 ETOT 43  -2258.4090238217    -4.305E+01 1.054E+00 1.005E+03
 ETOT 44  -2280.1417727054    -2.173E+01 4.868E+00 1.908E+03
 ETOT 45  -2252.8306203631     2.731E+01 6.163E-01 8.599E+02
 ETOT 46  -2254.7874220237    -1.957E+00 4.051E-01 6.044E+02
 ETOT 47  -2271.1875606635    -1.640E+01 8.749E-01 7.812E+02
 ETOT 48  -2288.9215828322    -1.773E+01 3.188E-01 9.436E+02
 ETOT 49  -2313.9019336675    -2.498E+01 8.072E+00 3.933E+03
 ETOT 50  -2278.8526724706     3.505E+01 1.746E+00 2.646E+03
 ETOT 51  -2217.8305190347     6.102E+01 6.110E+00 1.883E+03
 ETOT 52  -2236.4911725835    -1.866E+01 8.783E-01 5.954E+02
 ETOT 53  -2251.8620296991    -1.537E+01 4.871E-01 3.989E+02
 ETOT 54  -2250.7368330014     1.125E+00 2.855E-01 2.647E+02
 ETOT 55  -2252.1714924120    -1.435E+00 5.567E-02 2.767E+02
 ETOT 56  -2251.4187339647     7.528E-01 5.695E-02 2.483E+02
 ETOT 57  -2252.2608138786    -8.421E-01 2.339E-02 2.624E+02
 ETOT 58  -2254.9971967609    -2.736E+00 6.180E-02 3.500E+02
 ETOT 59  -2251.1710108311     3.826E+00 3.549E-01 1.450E+02
 ETOT 60  -2251.7379183884    -5.669E-01 1.526E-01 1.158E+02
 ETOT 61  -2259.8529766480    -8.115E+00 9.281E-01 6.930E+02
 ETOT 62  -2254.5725951515     5.280E+00 9.213E-02 2.294E+02
 ETOT 63  -2247.4897103316     7.083E+00 1.204E-01 1.655E+01
 ETOT 64  -2251.3107032200    -3.821E+00 3.193E-01 6.824E+01
 ETOT 65  -2249.2963938324     2.014E+00 7.577E-02 3.953E+01
 ETOT 66  -2248.7555842620     5.408E-01 3.481E-02 1.548E+01
 ETOT 67  -2248.8201358693    -6.455E-02 1.772E-02 1.096E+01
 ETOT 68  -2248.8272174336    -7.082E-03 7.738E-03 8.733E+00
 ETOT 69  -2248.8533324488    -2.612E-02 6.448E-03 8.298E+00
 ETOT 70  -2249.7862718767    -9.329E-01 4.329E-02 3.032E+01
 ETOT 71  -2248.9828992748     8.034E-01 2.968E-02 8.746E+00
 ETOT 72  -2248.7814404016     2.015E-01 7.990E-03 2.356E+00
 ETOT 73  -2248.8045318180    -2.309E-02 5.239E-02 2.491E+00
 ETOT 74  -2248.7292793350     7.525E-02 1.839E-02 7.042E-01
 ETOT 75  -2248.7541649236    -2.489E-02 1.149E-02 7.403E-01
 ETOT 76  -2248.7165374163     3.763E-02 4.290E-03 1.608E-01
 ETOT 77  -2248.7177587781    -1.221E-03 4.002E-02 1.217E-01
 ETOT 78  -2248.7102234537     7.535E-03 3.591E-03 5.410E-02
 ETOT 79  -2248.7077099277     2.514E-03 1.555E-03 2.073E-02
 ETOT 80  -2248.7059332329     1.777E-03 1.483E-03 1.041E-02
 ETOT 81  -2248.7047257674     1.207E-03 6.128E-03 1.065E-02
 ETOT 82  -2248.7044136186     3.121E-04 1.036E-03 1.032E-02
 ETOT 83  -2248.7041470295     2.666E-04 6.637E-04 6.165E-03
 ETOT 84  -2248.7036133955     5.336E-04 5.439E-04 2.021E-03
 ETOT 85  -2248.7035917345     2.166E-05 2.707E-04 4.336E-04
 ETOT 86  -2248.7035986085    -6.874E-06 3.255E-04 1.950E-04
 ETOT 87  -2248.7035941930     4.416E-06 4.094E-04 1.031E-04
 ETOT 88  -2248.7035947735    -5.805E-07 5.269E-04 2.779E-05
 ETOT 89  -2248.7035989692    -4.196E-06 4.419E-04 1.263E-05
 ETOT 90  -2248.7036030565    -4.087E-06 4.768E-04 6.982E-06
 ETOT 91  -2248.7036063199    -3.263E-06 3.316E-04 2.495E-06
 ETOT 92  -2248.7036073285    -1.009E-06 3.193E-04 1.203E-06
 ETOT 93  -2248.7036079877    -6.592E-07 1.990E-04 3.964E-07
 ETOT 94  -2248.7036082238    -2.361E-07 1.781E-04 7.416E-08
 ETOT 95  -2248.7036082525    -2.864E-08 1.050E-04 2.461E-08
 ETOT 96  -2248.7036082622    -9.781E-09 9.113E-05 9.210E-09
 ETOT 97  -2248.7036082669    -4.667E-09 6.087E-05 2.741E-09
 ETOT 98  -2248.7036082684    -1.487E-09 4.560E-05 6.242E-10
 ETOT 99  -2248.7036082685    -1.473E-10 6.224E-05 1.023E-10
 ETOT  100  -2248.7036082688    -2.678E-10 4.563E-05 1.129E-11
 ETOT  101  -2248.7036082685     3.188E-10 6.054E-05 5.544E-12
 ETOT  102  -2248.7036082687    -1.814E-10 4.361E-05 2.515E-12
 ETOT  103  -2248.7036082688    -1.410E-10 5.608E-05 1.156E-12
 ETOT  104  -2248.7036082685     2.906E-10 3.969E-05 6.310E-13
 ETOT  105  -2248.7036082687    -1.442E-10 4.968E-05 2.297E-13
 ETOT  106  -2248.7036082684     2.983E-10 3.460E-05 9.095E-14
 ETOT  107  -2248.7036082688    -3.874E-10 4.233E-05 3.941E-14
 ETOT  108  -2248.7036082687     6.548E-11 2.908E-05 1.909E-14
 ETOT  109  -2248.7036082687    -3.047E-11 3.491E-05 6.145E-15
 ETOT  110  -2248.7036082687     3.638E-11 2.371E-05 1.256E-15
 ETOT  111  -2248.7036082687     1.091E-11 2.803E-05 3.106E-16
 ETOT  112  -2248.7036082686     1.050E-10 2.512E-05 1.468E-16
 ETOT  113  -2248.7036082689    -3.174E-10 4.057E-05 2.064E-17
 ETOT  114  -2248.7036082688     9.004E-11 4.862E-05 5.975E-18
 ETOT  115  -2248.7036082688    -4.138E-11 7.628E-05 1.451E-18
 ETOT  116  -2248.7036082687     1.432E-10 8.694E-05 3.668E-19
 ETOT  117  -2248.7036082686     6.185E-11 1.297E-04 9.745E-20
 ETOT  118  -2248.7036082686     4.411E-11 1.365E-04 2.653E-20
 ETOT  119  -2248.7036082687    -6.958E-11 1.887E-04 1.065E-20
 ETOT  120  -2248.7036082687     9.095E-12 1.785E-04 3.819E-21
 ETOT  121  -2248.7036082687    -3.047E-11 2.253E-04 2.168E-21
 ETOT  122  -2248.7036082687    -3.138E-11 1.901E-04 1.163E-21
 ETOT  123  -2248.7036082687    -1.228E-11 2.201E-04 4.446E-22
 ETOT  124  -2248.7036082687    -3.638E-12 1.687E-04 2.503E-22
 ETOT  125  -2248.7036082688    -3.138E-11 1.826E-04 5.061E-23
 ETOT  126  -2248.7036082688    -5.730E-11 1.304E-04 6.302E-24
 ETOT  127  -2248.7036082688    -2.774E-11 1.345E-04 2.923E-24
 ETOT  128  -2248.7036082688     3.638E-12 9.154E-05 3.135E-24
 ETOT  129  -2248.7036082688    -1.819E-12 9.133E-05 1.061E-23
 ETOT  130  -2248.7036082688    -4.547E-13 6.039E-05 1.143E-23
 ETOT  131  -2248.7036082688     4.547E-13 5.896E-05 1.308E-23
 ETOT  132  -2248.7036082689    -5.002E-12 3.831E-05 1.743E-23
 ETOT  133  -2248.7036082689    -1.819E-12 3.692E-05 2.545E-23
 ETOT  134  -2248.7036082689    -9.095E-13 2.375E-05 3.579E-23
 ETOT  135  -2248.7036082689     9.095E-13 2.271E-05 4.577E-23
 ETOT  136  -2248.7036082689    -2.728E-12 1.453E-05 5.378E-23
 ETOT  137  -2248.7036082688     1.546E-11 1.383E-05 9.687E-23
 ETOT  138  -2248.7036082688    -1.364E-12 8.822E-06 1.047E-22
 ETOT  139  -2248.7036082688     3.638E-12 8.380E-06 1.223E-22
 ETOT  140  -2248.7036082688    -1.364E-12 5.338E-06 1.248E-22
 ETOT  141  -2248.7036082688    -4.547E-13 5.066E-06 1.136E-22
 ETOT  142  -2248.7036082688     4.547E-13 3.778E-06 1.018E-22
 ETOT  143  -2248.7036082688     2.728E-11 3.060E-06 5.389E-23
 ETOT  144  -2248.7036082688    -1.228E-11 3.002E-06 4.535E-23
 ETOT  145  -2248.7036082688    -9.095E-12 2.089E-06 7.411E-24
 ETOT  146  -2248.7036082688     2.092E-11 2.377E-06 3.823E-24
 ETOT  147  -2248.7036082688     0.000E+00 1.652E-06 1.791E-24
 ETOT  148  -2248.7036082688    -5.912E-12 1.877E-06 1.038E-24
 ETOT  149  -2248.7036082688    -3.638E-12 1.304E-06 6.080E-25
 ETOT  150  -2248.7036082688     5.457E-12 1.479E-06 2.414E-25
 ETOT  151  -2248.7036082688    -2.274E-12 1.027E-06 1.061E-25
 ETOT  152  -2248.7036082688    -1.364E-12 1.164E-06 1.540E-25
 ETOT  153  -2248.7036082688     2.728E-12 8.079E-07 2.432E-25
 ETOT  154  -2248.7036082688    -1.819E-12 9.146E-07 5.660E-25
 ETOT  155  -2248.7036082688    -1.819E-12 6.346E-07 1.250E-24
 ETOT  156  -2248.7036082688     3.638E-12 7.179E-07 2.415E-24
 ETOT  157  -2248.7036082688    -1.819E-12 4.981E-07 3.117E-24
 ETOT  158  -2248.7036082688     3.638E-12 5.631E-07 4.624E-24
 ETOT  159  -2248.7036082688    -3.183E-12 3.906E-07 5.053E-24
 ETOT  160  -2248.7036082688     0.000E+00 4.414E-07 5.986E-24
 ETOT  161  -2248.7036082688    -1.364E-12 3.062E-07 6.252E-24
 ETOT  162  -2248.7036082688     2.728E-12 3.459E-07 8.293E-24
 ETOT  163  -2248.7036082688    -2.274E-12 2.399E-07 9.323E-24
 ETOT  164  -2248.7036082688     3.183E-12 2.709E-07 1.175E-23
 ETOT  165  -2248.7036082688     4.547E-13 1.879E-07 1.289E-23
 ETOT  166  -2248.7036082688    -9.095E-13 2.121E-07 1.368E-23
 ETOT  167  -2248.7036082688    -4.547E-12 1.471E-07 1.450E-23
 ETOT  168  -2248.7036082688     1.819E-12 1.661E-07 1.126E-23
 ETOT  169  -2248.7036082688     1.819E-12 1.152E-07 9.522E-24
 ETOT  170  -2248.7036082688     1.819E-12 1.300E-07 6.318E-24
 ETOT  171  -2248.7036082688    -9.550E-12 9.014E-08 8.459E-25
 ETOT  172  -2248.7036082688     3.183E-12 1.017E-07 3.153E-25
 ETOT  173  -2248.7036082688    -1.364E-12 7.055E-08 3.626E-25
 ETOT  174  -2248.7036082688    -9.095E-13 8.281E-08 3.065E-25
 ETOT  175  -2248.7036082688     0.000E+00 5.521E-08 2.391E-25
 ETOT  176  -2248.7036082688     9.095E-13 7.692E-08 2.314E-25
 ETOT  177  -2248.7036082688     1.364E-12 4.430E-08 2.139E-25
 ETOT  178  -2248.7036082688    -4.547E-13 7.144E-08 2.725E-25
 ETOT  179  -2248.7036082688     4.547E-13 4.113E-08 4.762E-25
 ETOT  180  -2248.7036082688    -9.095E-13 6.635E-08 5.795E-25
 ETOT  181  -2248.7036082688     4.547E-13 3.818E-08 6.551E-25
 ETOT  182  -2248.7036082688    -4.547E-13 6.162E-08 7.660E-25
 ETOT  183  -2248.7036082688     1.364E-12 3.545E-08 4.758E-25
 ETOT  184  -2248.7036082688    -2.274E-12 5.722E-08 8.915E-25
 ETOT  185  -2248.7036082688    -4.547E-13 3.291E-08 5.191E-25
 ETOT  186  -2248.7036082688    -3.183E-12 5.314E-08 8.337E-25
 ETOT  187  -2248.7036082688     3.183E-12 3.055E-08 1.460E-24
 ETOT  188  -2248.7036082688    -3.183E-12 4.935E-08 4.202E-24
 ETOT  189  -2248.7036082688     3.638E-12 2.836E-08 1.375E-24
 ETOT  190  -2248.7036082688    -9.095E-13 4.583E-08 1.124E-24
 ETOT  191  -2248.7036082688    -1.819E-12 2.632E-08 8.509E-26
 ETOT  192  -2248.7036082688     2.728E-12 4.256E-08 5.354E-26
 ETOT  193  -2248.7036082688    -9.095E-13 2.443E-08 5.362E-26
 ETOT  194  -2248.7036082688    -2.728E-12 3.952E-08 4.824E-26
 ETOT  195  -2248.7036082688    -9.095E-13 2.268E-08 4.430E-26
 ETOT  196  -2248.7036082688     4.547E-13 3.669E-08 3.403E-26
 ETOT  197  -2248.7036082688     4.547E-13 2.105E-08 2.471E-26
 ETOT  198  -2248.7036082688     1.364E-12 3.407E-08 4.752E-26
 ETOT  199  -2248.7036082688     4.547E-13 1.954E-08 2.929E-26
 ETOT  200  -2248.7036082688     1.819E-12 3.164E-08 3.615E-26
 ETOT  201  -2248.7036082688    -9.095E-13 1.814E-08 1.472E-25
 ETOT  202  -2248.7036082688    -3.638E-12 2.938E-08 7.383E-26
 ETOT  203  -2248.7036082688     2.274E-12 1.684E-08 3.765E-26
 ETOT  204  -2248.7036082688    -4.547E-13 2.728E-08 4.843E-26
 ETOT  205  -2248.7036082688    -1.819E-12 1.563E-08 4.256E-26
 ETOT  206  -2248.7036082688     4.547E-13 2.533E-08 5.737E-26
 ETOT  207  -2248.7036082688     3.183E-12 1.451E-08 1.351E-25
 ETOT  208  -2248.7036082688    -3.183E-12 2.351E-08 2.776E-26
 ETOT  209  -2248.7036082688    -9.095E-13 1.347E-08 2.099E-26
 ETOT  210  -2248.7036082688     1.364E-12 2.183E-08 2.568E-26
 ETOT  211  -2248.7036082688     0.000E+00 1.250E-08 2.806E-26
 ETOT  212  -2248.7036082688    -9.095E-13 2.027E-08 1.997E-26
 ETOT  213  -2248.7036082688     4.547E-13 1.160E-08 2.140E-26
 ETOT  214  -2248.7036082688     1.364E-12 1.882E-08 1.736E-26
 ETOT  215  -2248.7036082688     0.000E+00 1.077E-08 2.984E-26
 ETOT  216  -2248.7036082688    -9.095E-13 1.747E-08 2.597E-26
 ETOT  217  -2248.7036082688     9.095E-13 9.995E-09 1.686E-26
 ETOT  218  -2248.7036082688    -1.364E-12 1.622E-08 3.394E-26
 ETOT  219  -2248.7036082688     1.364E-12 9.278E-09 1.752E-26
 ETOT  220  -2248.7036082688     0.000E+00 1.506E-08 1.420E-26
 ETOT  221  -2248.7036082688     4.547E-13 8.611E-09 2.318E-26
 ETOT  222  -2248.7036082688    -4.547E-13 1.399E-08 2.106E-26
 ETOT  223  -2248.7036082688     0.000E+00 7.993E-09 1.478E-26
 ETOT  224  -2248.7036082688     9.095E-13 1.298E-08 1.873E-26
 ETOT  225  -2248.7036082688    -1.364E-12 7.419E-09 1.570E-26
 ETOT  226  -2248.7036082688     1.819E-12 1.206E-08 1.749E-26
 ETOT  227  -2248.7036082688    -1.364E-12 6.886E-09 1.617E-26
 ETOT  228  -2248.7036082688    -4.547E-13 1.119E-08 1.539E-26
 ETOT  229  -2248.7036082688     0.000E+00 6.392E-09 3.007E-26
 ETOT  230  -2248.7036082688     2.274E-12 1.039E-08 1.538E-26
 ETOT  231  -2248.7036082688    -1.364E-12 5.933E-09 1.138E-26
 ETOT  232  -2248.7036082688    -2.274E-12 9.648E-09 1.561E-26
 ETOT  233  -2248.7036082688     2.274E-12 5.507E-09 1.825E-26
 ETOT  234  -2248.7036082688    -2.274E-12 8.957E-09 2.478E-26
 ETOT  235  -2248.7036082688    -4.547E-13 5.111E-09 1.170E-26
 ETOT  236  -2248.7036082688     9.095E-13 8.316E-09 1.264E-26
 ETOT  237  -2248.7036082688     0.000E+00 4.744E-09 1.664E-26
 ETOT  238  -2248.7036082688     9.095E-13 7.720E-09 1.296E-26
 ETOT  239  -2248.7036082688    -9.095E-13 4.403E-09 1.287E-26
 ETOT  240  -2248.7036082688    -9.095E-13 7.168E-09 3.959E-26
 ETOT  241  -2248.7036082688     1.819E-12 4.087E-09 1.135E-26
 ETOT  242  -2248.7036082688    -1.364E-12 6.654E-09 1.035E-26
 ETOT  243  -2248.7036082688     0.000E+00 3.794E-09 3.202E-26
 ETOT  244  -2248.7036082688     1.364E-12 6.178E-09 1.421E-26
 ETOT  245  -2248.7036082688    -3.638E-12 3.521E-09 1.201E-26
 ETOT  246  -2248.7036082688     4.547E-12 5.735E-09 8.648E-27
 ETOT  247  -2248.7036082688    -4.547E-12 3.268E-09 1.572E-26
 ETOT  248  -2248.7036082688     1.819E-12 5.325E-09 1.433E-26
 ETOT  249  -2248.7036082688    -1.364E-12 3.034E-09 1.716E-26
 ETOT  250  -2248.7036082688     3.183E-12 4.943E-09 3.873E-26
 ETOT  251  -2248.7036082688    -9.095E-13 2.816E-09 3.470E-26
 ETOT  252  -2248.7036082688    -3.183E-12 4.589E-09 1.220E-26
 ETOT  253  -2248.7036082688     3.183E-12 2.613E-09 1.571E-26
 ETOT  254  -2248.7036082688    -2.274E-12 4.260E-09 1.237E-26
 ETOT  255  -2248.7036082688    -1.364E-12 2.426E-09 3.403E-26
 ETOT  256  -2248.7036082688    -1.819E-12 3.955E-09 2.276E-26
 ETOT  257  -2248.7036082688     3.183E-12 2.251E-09 1.029E-26
 ETOT  258  -2248.7036082688     1.819E-12 3.672E-09 1.888E-26
 ETOT  259  -2248.7036082688    -4.547E-13 2.090E-09 1.152E-26
 ETOT  260  -2248.7036082688    -1.364E-12 3.409E-09 1.616E-26
 ETOT  261  -2248.7036082688    -4.547E-13 1.940E-09 1.243E-26
 ETOT  262  -2248.7036082688     3.638E-12 3.165E-09 1.591E-26
 ETOT  263  -2248.7036082688    -2.728E-12 1.800E-09 1.731E-26
 ETOT  264  -2248.7036082688     1.364E-12 2.938E-09 1.118E-26
 ETOT  265  -2248.7036082688    -1.364E-12 1.671E-09 2.754E-26
 ETOT  266  -2248.7036082688    -1.364E-12 2.727E-09 1.768E-26
 ETOT  267  -2248.7036082688     2.274E-12 1.551E-09 1.426E-26
 ETOT  268  -2248.7036082688    -1.364E-12 2.532E-09 5.634E-26
 ETOT  269  -2248.7036082688    -4.547E-13 1.440E-09 1.111E-26
 ETOT  270  -2248.7036082688    -9.095E-13 2.350E-09 9.560E-27
 ETOT  271  -2248.7036082688    -4.547E-13 1.336E-09 7.373E-27
 ETOT  272  -2248.7036082688     2.274E-12 2.182E-09 1.004E-26
 ETOT  273  -2248.7036082688    -1.364E-12 1.240E-09 8.387E-27
 ETOT  274  -2248.7036082688    -4.547E-13 2.026E-09 1.126E-26
 ETOT  275  -2248.7036082688     0.000E+00 1.151E-09 1.009E-26
 ETOT  276  -2248.7036082688     9.095E-13 1.880E-09 1.314E-26
 ETOT  277  -2248.7036082688     9.095E-13 1.068E-09 9.070E-27
 ETOT  278  -2248.7036082688    -1.364E-12 1.746E-09 2.221E-26
 ETOT  279  -2248.7036082688     4.547E-13 9.917E-10 2.305E-26
 ETOT  280  -2248.7036082688     4.547E-13 1.621E-09 1.011E-26
 ETOT  281  -2248.7036082688     4.547E-13 9.205E-10 9.309E-27
 ETOT  282  -2248.7036082688    -2.274E-12 1.504E-09 2.235E-26
 ETOT  283  -2248.7036082688     4.547E-13 8.543E-10 1.291E-26
 ETOT  284  -2248.7036082688    -2.728E-12 1.397E-09 1.412E-26
 ETOT  285  -2248.7036082688     3.183E-12 7.930E-10 9.727E-27
 ETOT  286  -2248.7036082688    -2.274E-12 1.296E-09 1.220E-26
 ETOT  287  -2248.7036082688     2.274E-12 7.360E-10 9.712E-27
 ETOT  288  -2248.7036082688     0.000E+00 1.203E-09 2.086E-26
 ETOT  289  -2248.7036082688     0.000E+00 6.831E-10 1.861E-26
 ETOT  290  -2248.7036082688     2.274E-12 1.117E-09 1.149E-26
 ETOT  291  -2248.7036082688    -2.728E-12 6.341E-10 1.819E-26
 ETOT  292  -2248.7036082688    -9.095E-13 1.037E-09 1.149E-26
 ETOT  293  -2248.7036082688    -4.547E-13 5.885E-10 2.823E-26
 ETOT  294  -2248.7036082688     4.547E-12 9.628E-10 1.362E-26
 ETOT  295  -2248.7036082688    -1.364E-12 5.462E-10 1.454E-26
 ETOT  296  -2248.7036082688    -4.547E-13 8.937E-10 2.631E-26
 ETOT  297  -2248.7036082688     1.364E-12 5.070E-10 2.039E-26
 ETOT  298  -2248.7036082688    -3.638E-12 8.296E-10 2.991E-26
 ETOT  299  -2248.7036082688     3.183E-12 4.706E-10 2.025E-26
 ETOT  300  -2248.7036082688    -2.274E-12 7.702E-10 9.883E-27
 ETOT  301  -2248.7036082688    -4.547E-13 4.368E-10 2.235E-26
 ETOT  302  -2248.7036082688     1.819E-12 7.149E-10 2.774E-26
 ETOT  303  -2248.7036082688    -1.364E-12 4.054E-10 3.250E-26
 ETOT  304  -2248.7036082688     4.547E-13 6.637E-10 1.100E-26
 ETOT  305  -2248.7036082688     0.000E+00 3.763E-10 1.906E-26
 ETOT  306  -2248.7036082688    -1.364E-12 6.161E-10 2.984E-26
 ETOT  307  -2248.7036082688     0.000E+00 3.492E-10 2.103E-26
 ETOT  308  -2248.7036082688     2.274E-12 5.719E-10 1.756E-26
 ETOT  309  -2248.7036082688    -4.547E-13 3.241E-10 1.953E-26
 ETOT  310  -2248.7036082688     4.547E-13 5.309E-10 1.269E-26
 ETOT  311  -2248.7036082688    -9.095E-13 3.009E-10 1.002E-26
 ETOT  312  -2248.7036082688    -1.819E-12 4.928E-10 1.625E-26
 ETOT  313  -2248.7036082688     0.000E+00 2.792E-10 1.461E-26
 ETOT  314  -2248.7036082688     0.000E+00 4.574E-10 2.850E-26
 ETOT  315  -2248.7036082688    -1.819E-12 2.592E-10 1.525E-26
 ETOT  316  -2248.7036082688     4.547E-12 4.246E-10 1.750E-26
 ETOT  317  -2248.7036082688    -1.819E-12 2.406E-10 1.904E-26
 ETOT  318  -2248.7036082688     1.819E-12 3.942E-10 1.324E-26
 ETOT  319  -2248.7036082688    -4.547E-13 2.233E-10 1.024E-26
 ETOT  320  -2248.7036082688    -2.728E-12 3.659E-10 9.907E-27
 ETOT  321  -2248.7036082688     0.000E+00 2.072E-10 1.515E-26
 ETOT  322  -2248.7036082688     2.274E-12 3.396E-10 2.349E-26
 ETOT  323  -2248.7036082688    -4.547E-13 1.923E-10 8.075E-27
 ETOT  324  -2248.7036082688     1.819E-12 3.153E-10 1.926E-26
 ETOT  325  -2248.7036082688    -4.547E-13 1.785E-10 1.449E-26
 ETOT  326  -2248.7036082688     2.274E-12 2.927E-10 1.603E-26
 ETOT  327  -2248.7036082688    -1.819E-12 1.657E-10 1.102E-26
 ETOT  328  -2248.7036082688    -2.274E-12 2.717E-10 1.593E-26
 ETOT  329  -2248.7036082688     0.000E+00 1.538E-10 1.111E-26
 ETOT  330  -2248.7036082688     4.547E-13 2.522E-10 1.103E-26
 ETOT  331  -2248.7036082688    -1.819E-12 1.427E-10 2.750E-26
 ETOT  332  -2248.7036082688     4.547E-13 2.341E-10 1.770E-26
 ETOT  333  -2248.7036082688     0.000E+00 1.325E-10 3.121E-26
 ETOT  334  -2248.7036082688     0.000E+00 2.173E-10 1.637E-26
 ETOT  335  -2248.7036082688     4.547E-13 1.230E-10 1.097E-26
 ETOT  336  -2248.7036082688     9.095E-13 2.017E-10 1.291E-26
 ETOT  337  -2248.7036082688    -1.364E-12 1.141E-10 9.250E-27
 ETOT  338  -2248.7036082688     9.095E-13 1.872E-10 1.330E-26
 ETOT  339  -2248.7036082688     4.547E-13 1.059E-10 1.464E-26
 ETOT  340  -2248.7036082688    -1.364E-12 1.738E-10 1.119E-26
 ETOT  341  -2248.7036082688     0.000E+00 9.832E-11 1.770E-26
 ETOT  342  -2248.7036082688     4.547E-13 1.613E-10 1.206E-26
 ETOT  343  -2248.7036082688     4.547E-13 9.125E-11 1.074E-26
 ETOT  344  -2248.7036082688     1.819E-12 1.497E-10 1.748E-26
 ETOT  345  -2248.7036082688    -1.364E-12 8.470E-11 1.672E-26
 ETOT  346  -2248.7036082688    -2.274E-12 1.390E-10 4.169E-26
 ETOT  347  -2248.7036082688     1.819E-12 7.861E-11 1.453E-26
 ETOT  348  -2248.7036082688     2.274E-12 1.290E-10 2.680E-26
 ETOT  349  -2248.7036082688    -3.183E-12 7.296E-11 3.193E-26
 ETOT  350  -2248.7036082688     1.364E-12 1.198E-10 1.209E-26
 ETOT  351  -2248.7036082688    -1.819E-12 6.772E-11 1.026E-26
 ETOT  352  -2248.7036082688     0.000E+00 1.112E-10 1.465E-26
 ETOT  353  -2248.7036082688     4.547E-13 6.285E-11 8.699E-27
 ETOT  354  -2248.7036082688     2.728E-12 1.032E-10 9.590E-27
 ETOT  355  -2248.7036082688     9.095E-13 5.834E-11 1.764E-26
 ETOT  356  -2248.7036082688    -1.364E-12 9.578E-11 7.056E-27
 ETOT  357  -2248.7036082688    -1.364E-12 5.415E-11 1.079E-26
 ETOT  358  -2248.7036082688     0.000E+00 8.890E-11 3.522E-26
 ETOT  359  -2248.7036082688     9.095E-13 5.025E-11 1.195E-26
 ETOT  360  -2248.7036082688     1.364E-12 8.252E-11 1.468E-26
 ETOT  361  -2248.7036082688    -1.819E-12 4.664E-11 3.464E-26
 ETOT  362  -2248.7036082688     1.819E-12 7.660E-11 1.772E-26
 ETOT  363  -2248.7036082688    -9.095E-13 4.329E-11 1.297E-26
 ETOT  364  -2248.7036082688    -9.095E-13 7.110E-11 3.124E-26
 ETOT  365  -2248.7036082688     0.000E+00 4.018E-11 1.441E-26
 ETOT  366  -2248.7036082688    -9.095E-13 6.600E-11 1.178E-26
 ETOT  367  -2248.7036082688     0.000E+00 3.729E-11 1.145E-26
 ETOT  368  -2248.7036082688     0.000E+00 6.126E-11 8.940E-27
 ETOT  369  -2248.7036082688     0.000E+00 3.461E-11 6.960E-27
 ETOT  370  -2248.7036082688    -1.819E-12 5.686E-11 3.131E-26
 ETOT  371  -2248.7036082688     4.547E-13 3.213E-11 8.676E-27
 ETOT  372  -2248.7036082688     1.364E-12 5.278E-11 1.395E-26
 ETOT  373  -2248.7036082688     9.095E-13 2.982E-11 9.282E-27
 ETOT  374  -2248.7036082688     4.547E-13 4.899E-11 1.108E-26
 ETOT  375  -2248.7036082688    -2.274E-12 2.767E-11 9.680E-27
 ETOT  376  -2248.7036082688     1.364E-12 4.547E-11 1.222E-26
 ETOT  377  -2248.7036082688    -4.547E-13 2.569E-11 9.292E-27
 ETOT  378  -2248.7036082688     1.819E-12 4.221E-11 1.209E-26
 ETOT  379  -2248.7036082688     9.095E-13 2.384E-11 1.109E-26
 ETOT  380  -2248.7036082688    -3.183E-12 3.918E-11 1.626E-26
 ETOT  381  -2248.7036082688     4.093E-12 2.213E-11 1.274E-26
 ETOT  382  -2248.7036082688    -2.728E-12 3.637E-11 1.047E-26
 ETOT  383  -2248.7036082688     3.183E-12 2.054E-11 9.979E-27
 ETOT  384  -2248.7036082688    -1.819E-12 3.376E-11 2.135E-26
 ETOT  385  -2248.7036082688     4.547E-13 1.906E-11 1.856E-26
 ETOT  386  -2248.7036082688    -4.547E-13 3.133E-11 3.261E-26
 ETOT  387  -2248.7036082688     1.364E-12 1.769E-11 1.182E-26
 ETOT  388  -2248.7036082688    -2.728E-12 2.908E-11 9.411E-27
 ETOT  389  -2248.7036082688     9.095E-13 1.642E-11 1.433E-26
 ETOT  390  -2248.7036082688     2.274E-12 2.699E-11 1.786E-26
 ETOT  391  -2248.7036082688    -1.364E-12 1.524E-11 1.786E-26
 ETOT  392  -2248.7036082688     4.547E-13 2.506E-11 9.967E-27
 ETOT  393  -2248.7036082688    -1.819E-12 1.414E-11 1.059E-26
 ETOT  394  -2248.7036082688     1.364E-12 2.326E-11 9.903E-27
 ETOT  395  -2248.7036082688    -1.364E-12 1.313E-11 1.259E-26
 ETOT  396  -2248.7036082688     4.547E-13 2.159E-11 1.870E-26
 ETOT  397  -2248.7036082688    -2.274E-12 1.218E-11 1.036E-26
 ETOT  398  -2248.7036082688    -4.547E-13 2.004E-11 1.875E-26
 ETOT  399  -2248.7036082688     2.728E-12 1.131E-11 1.007E-26
 ETOT  400  -2248.7036082688    -3.183E-12 1.860E-11 1.811E-26

 Cartesian components of stress tensor (hartree/bohr^3)
  sigma(1 1)=  1.61090178E-02  sigma(3 2)=  0.00000000E+00
  sigma(2 2)=  1.61090178E-02  sigma(3 1)=  0.00000000E+00
  sigma(3 3)=  1.58411632E-02  sigma(2 1)=  0.00000000E+00


 scprqt:  WARNING -
  nstep=  400 was not enough SCF cycles to converge;
  maximum residual=  1.860E-11 exceeds tolwfr=  1.000E-20


--- !ResultsGS
iteration_state: {dtset: 1, }
comment   : Summary of ground state results
lattice_vectors:
- [  7.7624317,   0.0000000,   0.0000000, ]
- [  0.0000000,   7.7624317,   0.0000000, ]
- [  0.0000000,   0.0000000,  65.1369009, ]
lattice_lengths: [   7.76243,    7.76243,   65.13690, ]
lattice_angles: [ 90.000,  90.000,  90.000, ] # degrees, (23, 13, 12)
lattice_volume:   3.9248465E+03
convergence: {deltae: -3.183E-12, res2:  1.811E-26, residm:  1.860E-11, diffor: null, }
etotal    :  -2.24870361E+03
entropy   :   0.00000000E+00
fermie    :   1.56988919E-01
cartesian_stress_tensor: # hartree/bohr^3
- [  1.61090178E-02,   0.00000000E+00,   0.00000000E+00, ]
- [  0.00000000E+00,   1.61090178E-02,   0.00000000E+00, ]
- [  0.00000000E+00,   0.00000000E+00,   1.58411632E-02, ]
pressure_GPa:  -4.7132E+02
xred      :
- [  5.0000E-01,   2.5451E-32,   1.3538E-01, Sn]
- [ -1.2553E-32,   5.0000E-01,   2.1515E-01, Sn]
- [  5.0000E-01,  -2.5603E-32,   2.9308E-01, Sn]
- [ -4.1575E-32,   5.0000E-01,   3.7285E-01, Sn]
- [  5.0000E-01,  -5.4624E-32,   4.5078E-01, Sn]
- [ -1.1466E-31,   5.0000E-01,   5.3055E-01, Sn]
- [  5.0000E-01,   2.0200E-32,   6.0848E-01, Sn]
- [ -7.4332E-32,   5.0000E-01,   6.8825E-01, Sn]
- [ -5.4468E-33,   5.0000E-01,   1.3630E-01, Se]
- [  5.0000E-01,  -1.8497E-32,   2.1423E-01, Se]
- [ -4.6931E-32,   5.0000E-01,   2.9400E-01, Se]
- [  5.0000E-01,  -1.0677E-32,   3.7193E-01, Se]
- [  2.7894E-32,   5.0000E-01,   4.5170E-01, Se]
- [  5.0000E-01,   9.6057E-33,   5.2963E-01, Se]
- [ -5.0431E-32,   5.0000E-01,   6.0940E-01, Se]
- [  5.0000E-01,  -1.1278E-31,   6.8733E-01, Se]
- [  5.0000E-01,  -9.3692E-32,   7.7787E-01, Se]
- [ -1.0526E-31,   5.0000E-01,   8.6462E-01, Se]
- [  5.0000E-01,   5.0000E-01,   8.2125E-01, Zn]
- [ -6.7420E-32,  -6.7420E-32,   8.2125E-01, Zn]
cartesian_forces: # hartree/bohr
- [ -0.00000000E+00,  -0.00000000E+00,  -1.32175931E-02, ]
- [ -0.00000000E+00,  -0.00000000E+00,  -1.30955147E-02, ]
- [ -0.00000000E+00,  -0.00000000E+00,   3.62543951E-03, ]
- [ -0.00000000E+00,  -0.00000000E+00,  -2.33407630E-03, ]
- [ -0.00000000E+00,  -0.00000000E+00,   2.32794689E-03, ]
- [ -0.00000000E+00,  -0.00000000E+00,  -4.63069514E-03, ]
- [ -0.00000000E+00,  -0.00000000E+00,   1.41366051E-02, ]
- [ -0.00000000E+00,  -0.00000000E+00,   1.56595010E-02, ]
- [ -0.00000000E+00,  -0.00000000E+00,  -1.43115007E-02, ]
- [ -0.00000000E+00,  -0.00000000E+00,  -9.52192580E-03, ]
- [ -0.00000000E+00,  -0.00000000E+00,   1.01879137E-03, ]
- [ -0.00000000E+00,  -0.00000000E+00,   1.05531719E-03, ]
- [ -0.00000000E+00,  -0.00000000E+00,   1.88186180E-04, ]
- [ -0.00000000E+00,  -0.00000000E+00,  -2.12231745E-03, ]
- [ -0.00000000E+00,  -0.00000000E+00,   1.13348587E-02, ]
- [ -0.00000000E+00,  -0.00000000E+00,   1.58446912E-03, ]
- [ -0.00000000E+00,  -0.00000000E+00,   1.55406772E-02, ]
- [ -0.00000000E+00,  -0.00000000E+00,  -1.00808594E-02, ]
- [ -0.00000000E+00,  -0.00000000E+00,   1.42134529E-03, ]
- [ -0.00000000E+00,  -0.00000000E+00,   1.42134529E-03, ]
force_length_stats: {min:   1.88186180E-04, max:   1.56595010E-02, mean:   6.93144827E-03, }
...

 Integrated electronic density in atomic spheres:
 ------------------------------------------------
 Atom  Sphere_radius  Integrated_density
    1        2.00000         10.53992638
    2        2.00000         10.57888211
    3        2.00000         10.56420734
    4        2.00000         10.57611587
    5        2.00000         10.57437257
    6        2.00000         10.56937062
    7        2.00000         10.58022891
    8        2.00000         10.54789780
    9        2.00000         13.30334485
   10        2.00000         13.34249552
   11        2.00000         13.34004802
   12        2.00000         13.31770353
   13        2.00000         13.32305184
   14        2.00000         13.30701017
   15        2.00000         13.28606849
   16        2.00000         13.28988126
   17        2.00000         13.26670322
   18        2.00000         13.25717269
   19        2.00000         18.08818336
   20        2.00000         18.08818336
================================================================================

 ----iterations are completed or convergence reached----

 Mean square residual over all n,k,spin=   12.260E-15; max=  18.598E-12
 reduced coordinates (array xred) for   20 atoms
       0.500000000000      0.000000000000      0.135382000000
      -0.000000000000      0.500000000000      0.215153000000
       0.500000000000     -0.000000000000      0.293081000000
      -0.000000000000      0.500000000000      0.372852000000
       0.500000000000     -0.000000000000      0.450780000000
      -0.000000000000      0.500000000000      0.530551000000
       0.500000000000      0.000000000000      0.608479000000
      -0.000000000000      0.500000000000      0.688251000000
      -0.000000000000      0.500000000000      0.136303000000
       0.500000000000     -0.000000000000      0.214231000000
      -0.000000000000      0.500000000000      0.294003000000
       0.500000000000     -0.000000000000      0.371931000000
       0.000000000000      0.500000000000      0.451702000000
       0.500000000000      0.000000000000      0.529630000000
      -0.000000000000      0.500000000000      0.609401000000
       0.500000000000     -0.000000000000      0.687329000000
       0.500000000000     -0.000000000000      0.777873000000
      -0.000000000000      0.500000000000      0.864618000000
       0.500000000000      0.500000000000      0.821246000000
      -0.000000000000     -0.000000000000      0.821246000000
 rms dE/dt=  3.3816E-01; max dE/dt=  9.3422E-01; dE/dt below (all hartree)
    1       0.000000000000      0.000000000000      0.862962718471
    2       0.000000000000      0.000000000000      0.855010909589
    3       0.000000000000      0.000000000000     -0.234140229076
    4       0.000000000000      0.000000000000      0.154044161578
    5       0.000000000000      0.000000000000     -0.149625580794
    6       0.000000000000      0.000000000000      0.303638795331
    7       0.000000000000      0.000000000000     -0.918804977561
    8       0.000000000000      0.000000000000     -1.018001698619
    9       0.000000000000      0.000000000000      0.934216470176
   10       0.000000000000      0.000000000000      0.622238401900
   11       0.000000000000      0.000000000000     -0.064351247809
   12       0.000000000000      0.000000000000     -0.066730426479
   13       0.000000000000      0.000000000000     -0.010248199746
   14       0.000000000000      0.000000000000      0.140250846034
   15       0.000000000000      0.000000000000     -0.736307902179
   16       0.000000000000      0.000000000000     -0.101197743200
   17       0.000000000000      0.000000000000     -1.010261883027
   18       0.000000000000      0.000000000000      0.658645606722
   19       0.000000000000      0.000000000000     -0.090572362557
   20       0.000000000000      0.000000000000     -0.090572362557

 cartesian coordinates (angstrom) at end:
    1      2.05385096425820     0.00000000000000     4.66647720304041
    2      0.00000000000000     2.05385096425820     7.41610088243454
    3      2.05385096425820     0.00000000000000    10.10219826228218
    4      0.00000000000000     2.05385096425820    12.85182194167631
    5      2.05385096425820     0.00000000000000    15.53791932152395
    6      0.00000000000000     2.05385096425820    18.28754300091808
    7      2.05385096425820     0.00000000000000    20.97364038076572
    8      0.00000000000000     2.05385096425820    23.72329852912325
    9      0.00000000000000     2.05385096425820     4.69822311833196
   10      2.05385096425820     0.00000000000000     7.38432049817959
   11      0.00000000000000     2.05385096425820    10.13397864653713
   12      2.05385096425820     0.00000000000000    12.82007602638476
   13      0.00000000000000     2.05385096425820    15.56969970577890
   14      2.05385096425820     0.00000000000000    18.25579708562653
   15      0.00000000000000     2.05385096425820    21.00542076502067
   16      2.05385096425820     0.00000000000000    23.69151814486831
   17      2.05385096425820     0.00000000000000    26.81247596697236
   18      0.00000000000000     2.05385096425820    29.80248619711920
   19      2.05385096425820     2.05385096425820    28.30749831652748
   20      0.00000000000000     0.00000000000000    28.30749831652748

 cartesian forces (hartree/bohr) at end:
    1     -0.00000000000000    -0.00000000000000    -0.01321759312500
    2     -0.00000000000000    -0.00000000000000    -0.01309551472134
    3     -0.00000000000000    -0.00000000000000     0.00362543950639
    4     -0.00000000000000    -0.00000000000000    -0.00233407630149
    5     -0.00000000000000    -0.00000000000000     0.00232794688547
    6     -0.00000000000000    -0.00000000000000    -0.00463069514060
    7     -0.00000000000000    -0.00000000000000     0.01413660505023
    8     -0.00000000000000    -0.00000000000000     0.01565950097666
    9     -0.00000000000000    -0.00000000000000    -0.01431150073663
   10     -0.00000000000000    -0.00000000000000    -0.00952192579656
   11     -0.00000000000000    -0.00000000000000     0.00101879137157
   12     -0.00000000000000    -0.00000000000000     0.00105531719084
   13     -0.00000000000000    -0.00000000000000     0.00018818617994
   14     -0.00000000000000    -0.00000000000000    -0.00212231744666
   15     -0.00000000000000    -0.00000000000000     0.01133485868479
   16     -0.00000000000000    -0.00000000000000     0.00158446911914
   17     -0.00000000000000    -0.00000000000000     0.01554067715354
   18     -0.00000000000000    -0.00000000000000    -0.01008085943192
   19     -0.00000000000000    -0.00000000000000     0.00142134529080
   20     -0.00000000000000    -0.00000000000000     0.00142134529080
 frms,max,avg= 5.1914337E-03 1.5659501E-02   0.000E+00  0.000E+00 -3.085E-05 h/b

 cartesian forces (eV/Angstrom) at end:
    1     -0.00000000000000    -0.00000000000000    -0.67967590892266
    2     -0.00000000000000    -0.00000000000000    -0.67339838553546
    3     -0.00000000000000    -0.00000000000000     0.18642757939731
    4     -0.00000000000000    -0.00000000000000    -0.12002301907054
    5     -0.00000000000000    -0.00000000000000     0.11970783185258
    6     -0.00000000000000    -0.00000000000000    -0.23811989814406
    7     -0.00000000000000    -0.00000000000000     0.72693339821623
    8     -0.00000000000000    -0.00000000000000     0.80524384878066
    9     -0.00000000000000    -0.00000000000000    -0.73592689525445
   10     -0.00000000000000    -0.00000000000000    -0.48963707002232
   11     -0.00000000000000    -0.00000000000000     0.05238835428865
   12     -0.00000000000000    -0.00000000000000     0.05426658727517
   13     -0.00000000000000    -0.00000000000000     0.00967692163687
   14     -0.00000000000000    -0.00000000000000    -0.10913394185588
   15     -0.00000000000000    -0.00000000000000     0.58286181956446
   16     -0.00000000000000    -0.00000000000000     0.08147667117061
   17     -0.00000000000000    -0.00000000000000     0.79913368263949
   18     -0.00000000000000    -0.00000000000000    -0.51837859074013
   19     -0.00000000000000    -0.00000000000000     0.07308850736174
   20     -0.00000000000000    -0.00000000000000     0.07308850736174
 frms,max,avg= 2.6695423E-01 8.0524385E-01   0.000E+00  0.000E+00 -1.587E-03 e/A
 length scales=  7.762431680422  7.762431680422  7.762431680422 bohr
              =  4.107701928516  4.107701928516  4.107701928516 angstroms
 prteigrs : about to open file Cs2TiI6o_DS1_EIG
 Fermi (or HOMO) energy (hartree) =   0.15699   Average Vxc (hartree)=  -0.32617
 Eigenvalues (hartree) for nkpt=  10  k points:
 kpt#   1, nband=165, wtk=  0.06250, kpt=  0.0625  0.0625  0.5000 (reduced coord)
  -4.70555   -4.70555   -2.94281   -2.94255   -2.94052   -2.94048   -2.94002   -2.94001
  -1.66622   -1.66478   -1.66397   -1.66330   -1.66287   -1.66251   -1.66205   -1.66158
  -1.66151   -1.66126   -1.66022   -1.66006   -1.65981   -1.65957   -1.65907   -1.65880
  -1.65747   -1.65740   -1.65689   -1.65663   -1.65657   -1.65604   -1.65586   -1.65534
  -1.65507   -1.65453   -1.65374   -1.65367   -1.65315   -1.65311   -1.65290   -1.65245
  -1.65206   -1.64910   -1.64874   -1.64858   -1.64838   -1.64736   -1.64531   -1.64405
  -1.63800   -1.63673   -1.63631   -1.63509   -1.63452   -1.63381   -1.63369   -1.63277
  -1.63089   -1.63029   -0.65834   -0.65754   -0.65670   -0.65653   -0.65567   -0.65565
  -0.65564   -0.65563   -0.65541   -0.65470   -0.65449   -0.65404   -0.65383   -0.65356
  -0.65337   -0.65322   -0.65268   -0.65262   -0.65205   -0.65199   -0.65134   -0.64968
  -0.64957   -0.64947   -0.64914   -0.64900   -0.64876   -0.64859   -0.64855   -0.64843
  -0.64841   -0.64744   -0.64703   -0.64697   -0.64688   -0.64664   -0.64644   -0.64642
  -0.64606   -0.64604   -0.41264   -0.40605   -0.39604   -0.38424   -0.37870   -0.36844
  -0.35576   -0.35151   -0.34113   -0.33945   -0.16813   -0.16648   -0.16608   -0.16548
  -0.16487   -0.15306   -0.15280   -0.15148   -0.14631   -0.14473   -0.13033   -0.12965
  -0.11746   -0.11218   -0.09396   -0.08916   -0.06938   -0.06104   -0.05114   -0.03741
  -0.03216   -0.02566   -0.01767   -0.00602   -0.00579   -0.00153    0.00766    0.00957
   0.01632    0.01679    0.02142    0.02404    0.02681    0.03714    0.03859    0.04123
   0.04946    0.04959    0.05365    0.06039    0.07091    0.07338    0.08420    0.08896
   0.08935    0.09575    0.12591    0.13149    0.17550    0.19399    0.21340    0.22193
   0.23579    0.24639    0.25483    0.26342    0.26710
 prteigrs : prtvol=0 or 1, do not print more k-points.


--- !EnergyTerms
iteration_state     : {dtset: 1, }
comment             : Components of total free energy in Hartree
kinetic             :  1.30315659233700E+03
hartree             :  2.60160149738611E+03
xc                  : -4.59109288492080E+02
Ewald energy        :  7.27738030419680E+02
psp_core            :  4.84825430959148E+01
local_psp           : -5.70404911948155E+03
non_local_psp       : -7.66265604484824E+02
VdWaals_dft_d       : -2.58259049307805E-01
total_energy        : -2.24870360826906E+03
...


--- !EnergyTermsDC
iteration_state     : {dtset: 1, }
comment             : '"Double-counting" decomposition of free energy'
band_energy         : -2.81829900280246E+02
Ewald energy        :  7.27738030419680E+02
psp_core            :  4.84825430959148E+01
xc_dc               : -2.74283602245488E+03
VdWaals_dft_d       : -2.58259049307805E-01
total_energy_dc     : -2.24870360826884E+03
...


 Cartesian components of stress tensor (hartree/bohr^3)
  sigma(1 1)=  1.61090178E-02  sigma(3 2)=  0.00000000E+00
  sigma(2 2)=  1.61090178E-02  sigma(3 1)=  0.00000000E+00
  sigma(3 3)=  1.58411632E-02  sigma(2 1)=  0.00000000E+00

-Cartesian components of stress tensor (GPa)         [Pressure= -4.7132E+02 GPa]
- sigma(1 1)=  4.73943586E+02  sigma(3 2)=  0.00000000E+00
- sigma(2 2)=  4.73943586E+02  sigma(3 1)=  0.00000000E+00
- sigma(3 3)=  4.66063035E+02  sigma(2 1)=  0.00000000E+00

================================================================================
== DATASET  2 ==================================================================
-   mpi_nproc: 6, omp_nthreads: -1 (-1 if OMP is not activated)


--- !DatasetInfo
iteration_state: {dtset: 2, }
dimensions: {natom: 20, nkpt: 57, mband: 165, nsppol: 1, nspinor: 1, nspden: 1, mpw: 20127, }
cutoff_energies: {ecut:  22.5, pawecutdg:  -1.0, }
electrons: {nelect:   3.12000000E+02, charge:   0.00000000E+00, occopt:   1.00000000E+00, tsmear:   1.00000000E-02, }
meta: {optdriver: 0, ionmov: 0, optcell: 0, iscf: -2, paral_kgb: 0, }
...

 mkfilename : getden/=0, take file _DEN from output of DATASET   1.

 Real(R)+Recip(G) space primitive vectors, cartesian coordinates (Bohr,Bohr^-1):
 R(1)=  7.7624317  0.0000000  0.0000000  G(1)=  0.1288256  0.0000000  0.0000000
 R(2)=  0.0000000  7.7624317  0.0000000  G(2)=  0.0000000  0.1288256  0.0000000
 R(3)=  0.0000000  0.0000000 65.1369009  G(3)=  0.0000000  0.0000000  0.0153523
 Unit cell volume ucvol=  3.9248465E+03 bohr^3
 Angles (23,13,12)=  9.00000000E+01  9.00000000E+01  9.00000000E+01 degrees

 getcut: wavevector=  0.0000  0.0000  0.0000  ngfft=  36  36 288
         ecut(hartree)=     22.500   => boxcut(ratio)=   2.07066
--------------------------------------------------------------------------------


================================================================================
 prteigrs : about to open file Cs2TiI6o_DS2_EIG
 Non-SCF case, kpt    1 (  0.50000  0.50000  0.00000), residuals and eigenvalues=
  3.91E-21  2.41E-21  9.38E-21  2.03E-21  2.16E-21  6.33E-21  6.90E-21  2.63E-21
  3.40E-21  2.77E-21  3.14E-21  4.02E-21  5.10E-21  4.38E-21  5.16E-21  3.56E-21
  2.57E-21  6.22E-21  3.26E-21  7.09E-21  6.18E-21  3.20E-21  2.71E-21  2.69E-21
  7.24E-21  2.68E-21  6.65E-21  2.04E-21  3.41E-21  2.92E-21  6.50E-21  7.32E-21
  5.07E-21  7.49E-21  2.95E-21  8.56E-21  9.59E-21  6.04E-21  3.18E-21  4.97E-21
  2.76E-21  7.59E-21  2.61E-21  6.36E-21  5.04E-21  4.50E-21  7.91E-21  4.24E-21
  3.15E-21  6.08E-21  3.58E-21  9.53E-21  7.77E-21  7.75E-21  7.64E-21  2.57E-21
  9.47E-21  3.20E-21  2.46E-21  6.42E-21  7.66E-21  9.97E-21  2.93E-21  2.73E-21
  8.85E-21  7.14E-21  9.17E-21  7.62E-21  6.50E-21  4.04E-21  2.32E-21  6.07E-21
  5.32E-21  9.55E-21  8.51E-21  3.55E-21  7.63E-21  2.88E-21  9.44E-21  3.11E-21
  3.80E-21  4.03E-21  7.60E-21  3.31E-21  9.24E-21  9.91E-21  8.72E-21  4.72E-21
  5.63E-21  5.14E-21  3.14E-21  3.04E-21  5.53E-21  6.12E-21  5.08E-21  5.79E-21
  8.39E-21  3.09E-21  4.40E-21  3.02E-21  5.39E-21  4.04E-21  7.93E-21  4.39E-21
  7.88E-21  6.43E-21  6.87E-21  4.71E-21  5.58E-21  8.04E-21  5.70E-21  3.83E-21
  9.32E-21  9.53E-21  8.95E-21  6.42E-21  5.28E-21  1.90E-21  6.20E-21  6.18E-21
  7.61E-21  3.75E-21  4.26E-21  1.15E-21  3.64E-21  7.54E-21  4.99E-21  4.67E-21
  4.11E-21  8.98E-21  3.29E-21  4.44E-21  4.41E-21  6.52E-21  3.29E-21  4.79E-21
  1.30E-21  3.13E-21  5.98E-21  5.58E-21  5.52E-21  9.37E-21  9.12E-21  1.23E-21
  1.57E-21  3.16E-21  4.50E-21  2.00E-21  7.88E-21  3.32E-21  3.87E-21  6.25E-21
  2.82E-21  6.62E-21  6.98E-21  8.85E-21  1.79E-21  5.13E-21  7.91E-21  4.53E-21
  4.42E-21  7.12E-21  3.53E-21  8.64E-21  3.59E-10
 -4.7055E+00 -4.7055E+00 -2.9408E+00 -2.9408E+00 -2.9408E+00 -2.9408E+00
 -2.9404E+00 -2.9404E+00 -1.6630E+00 -1.6630E+00 -1.6624E+00 -1.6622E+00
 -1.6622E+00 -1.6611E+00 -1.6602E+00 -1.6601E+00 -1.6601E+00 -1.6597E+00
 -1.6589E+00 -1.6589E+00 -1.6579E+00 -1.6579E+00 -1.6575E+00 -1.6570E+00
 -1.6566E+00 -1.6565E+00 -1.6564E+00 -1.6562E+00 -1.6558E+00 -1.6550E+00
 -1.6548E+00 -1.6545E+00 -1.6544E+00 -1.6539E+00 -1.6537E+00 -1.6524E+00
 -1.6524E+00 -1.6517E+00 -1.6517E+00 -1.6499E+00 -1.6499E+00 -1.6475E+00
 -1.6473E+00 -1.6473E+00 -1.6469E+00 -1.6461E+00 -1.6459E+00 -1.6459E+00
 -1.6360E+00 -1.6355E+00 -1.6355E+00 -1.6328E+00 -1.6328E+00 -1.6324E+00
 -1.6324E+00 -1.6319E+00 -1.6298E+00 -1.6298E+00 -6.5778E-01 -6.5748E-01
 -6.5693E-01 -6.5664E-01 -6.5572E-01 -6.5572E-01 -6.5528E-01 -6.5501E-01
 -6.5499E-01 -6.5474E-01 -6.5474E-01 -6.5438E-01 -6.5333E-01 -6.5320E-01
 -6.5263E-01 -6.5263E-01 -6.5247E-01 -6.5229E-01 -6.5229E-01 -6.5229E-01
 -6.5084E-01 -6.5066E-01 -6.4964E-01 -6.4918E-01 -6.4906E-01 -6.4906E-01
 -6.4850E-01 -6.4830E-01 -6.4789E-01 -6.4756E-01 -6.4713E-01 -6.4710E-01
 -6.4704E-01 -6.4704E-01 -6.4691E-01 -6.4685E-01 -6.4685E-01 -6.4621E-01
 -6.4621E-01 -6.4531E-01 -3.5588E-01 -3.5550E-01 -3.5512E-01 -3.5474E-01
 -3.5454E-01 -3.5363E-01 -3.5318E-01 -3.4524E-01 -3.2625E-01 -3.2404E-01
 -1.6942E-01 -1.6942E-01 -1.5700E-01 -1.5700E-01 -1.5230E-01 -1.5230E-01
 -1.5067E-01 -1.5029E-01 -1.4991E-01 -1.4989E-01 -1.3511E-01 -1.3458E-01
 -1.1927E-01 -1.1880E-01 -9.6949E-02 -9.6949E-02 -9.6027E-02 -9.5755E-02
 -8.8314E-02 -8.8314E-02 -7.5370E-02 -7.5370E-02 -7.4078E-02 -7.3222E-02
 -6.1477E-02 -6.1477E-02 -5.8301E-02 -5.8301E-02 -4.1964E-02 -4.1964E-02
 -2.4013E-02 -2.4013E-02 -1.4986E-02 -1.0024E-02 -9.6364E-03 -9.6364E-03
 -2.2364E-03 -2.2364E-03  7.3445E-03  1.8880E-02  1.8880E-02  1.9778E-02
  3.2036E-02  3.9206E-02  7.9832E-02  8.4349E-02  1.2551E-01  1.2802E-01
  2.1778E-01  2.2789E-01  2.4239E-01  2.4239E-01  2.5317E-01  2.5325E-01
  2.5666E-01  2.5666E-01  2.7681E-01
  prteigrs : nnsclo,ikpt=  300    1 max resid (incl. the buffer)=  3.59278E-10
 Non-SCF case, kpt    2 (  0.45000  0.45000  0.05000), residuals and eigenvalues=
  4.19E-21  6.72E-21  5.07E-21  4.76E-21  2.88E-21  1.84E-21  2.94E-21  4.08E-21
  5.05E-21  6.09E-21  5.76E-21  6.78E-21  3.79E-21  9.32E-21  6.79E-21  9.26E-21
  7.27E-21  8.69E-21  2.96E-21  5.00E-21  6.54E-21  6.17E-21  6.93E-21  3.15E-21
  7.24E-21  6.98E-21  7.92E-21  2.44E-21  3.38E-21  5.49E-21  7.22E-21  5.81E-21
  2.34E-21  5.18E-21  3.70E-21  6.88E-21  3.50E-21  7.51E-21  6.85E-21  8.40E-21
  4.60E-21  8.29E-21  3.98E-21  3.48E-21  3.31E-21  7.42E-21  9.52E-21  4.51E-21
  2.71E-21  7.71E-21  7.88E-21  8.50E-21  6.14E-21  3.36E-21  5.02E-21  4.28E-21
  3.78E-21  3.20E-21  3.01E-21  4.46E-21  6.13E-21  2.63E-21  6.00E-21  9.21E-21
  3.90E-21  4.55E-21  6.34E-21  3.18E-21  6.21E-21  6.37E-21  5.23E-21  8.43E-21
  5.29E-21  4.57E-21  3.01E-21  4.55E-21  2.27E-21  6.03E-21  3.47E-21  3.57E-21
  5.12E-21  4.81E-21  5.34E-21  4.62E-21  2.45E-21  7.76E-21  6.00E-21  6.95E-21
  4.58E-21  9.69E-21  5.22E-21  3.71E-21  2.59E-21  8.71E-21  8.86E-21  5.35E-21
  6.10E-21  4.48E-21  7.87E-21  4.37E-21  3.43E-21  7.59E-21  8.30E-21  4.70E-21
  2.01E-21  4.80E-21  4.38E-21  8.70E-21  4.22E-21  2.65E-21  5.09E-21  3.82E-21
  5.09E-21  7.97E-21  4.76E-21  6.17E-21  7.91E-21  8.44E-21  8.97E-21  7.82E-21
  3.38E-21  9.56E-21  4.06E-21  5.03E-21  5.55E-21  4.05E-21  7.94E-21  4.90E-21
  6.83E-21  9.95E-21  5.81E-21  4.20E-21  8.77E-21  9.11E-21  7.72E-21  2.95E-21
  4.47E-21  8.23E-21  2.02E-21  9.96E-21  3.39E-21  2.57E-21  2.78E-21  3.84E-21
  4.99E-21  2.37E-21  1.98E-21  6.19E-21  8.96E-21  6.97E-21  2.70E-21  7.44E-21
  4.93E-21  3.84E-21  9.89E-21  2.24E-21  3.67E-21  5.78E-21  9.15E-21  4.62E-21
  6.28E-21  1.79E-21  8.84E-21  7.02E-21  5.26E-07
 -4.7056E+00 -4.7056E+00 -2.9414E+00 -2.9412E+00 -2.9409E+00 -2.9408E+00
 -2.9405E+00 -2.9405E+00 -1.6637E+00 -1.6633E+00 -1.6632E+00 -1.6627E+00
 -1.6625E+00 -1.6621E+00 -1.6618E+00 -1.6611E+00 -1.6599E+00 -1.6597E+00
 -1.6591E+00 -1.6589E+00 -1.6586E+00 -1.6583E+00 -1.6580E+00 -1.6573E+00
 -1.6572E+00 -1.6570E+00 -1.6567E+00 -1.6564E+00 -1.6562E+00 -1.6562E+00
 -1.6556E+00 -1.6549E+00 -1.6540E+00 -1.6536E+00 -1.6535E+00 -1.6530E+00
 -1.6528E+00 -1.6528E+00 -1.6522E+00 -1.6515E+00 -1.6509E+00 -1.6494E+00
 -1.6486E+00 -1.6484E+00 -1.6482E+00 -1.6474E+00 -1.6472E+00 -1.6464E+00
 -1.6368E+00 -1.6363E+00 -1.6356E+00 -1.6339E+00 -1.6338E+00 -1.6335E+00
 -1.6332E+00 -1.6320E+00 -1.6308E+00 -1.6305E+00 -6.5779E-01 -6.5734E-01
 -6.5687E-01 -6.5647E-01 -6.5582E-01 -6.5577E-01 -6.5546E-01 -6.5504E-01
 -6.5496E-01 -6.5482E-01 -6.5479E-01 -6.5454E-01 -6.5376E-01 -6.5357E-01
 -6.5277E-01 -6.5270E-01 -6.5265E-01 -6.5248E-01 -6.5242E-01 -6.5241E-01
 -6.5065E-01 -6.5053E-01 -6.4970E-01 -6.4952E-01 -6.4919E-01 -6.4918E-01
 -6.4847E-01 -6.4837E-01 -6.4808E-01 -6.4773E-01 -6.4738E-01 -6.4732E-01
 -6.4724E-01 -6.4713E-01 -6.4706E-01 -6.4701E-01 -6.4698E-01 -6.4638E-01
 -6.4632E-01 -6.4550E-01 -3.5762E-01 -3.5651E-01 -3.5569E-01 -3.5534E-01
 -3.5502E-01 -3.5423E-01 -3.5369E-01 -3.4570E-01 -3.2705E-01 -3.2488E-01
 -1.6993E-01 -1.6889E-01 -1.5789E-01 -1.5743E-01 -1.5407E-01 -1.5208E-01
 -1.5099E-01 -1.5060E-01 -1.5025E-01 -1.4975E-01 -1.3947E-01 -1.3892E-01
 -1.2445E-01 -1.2403E-01 -1.0517E-01 -1.0478E-01 -9.6174E-02 -9.5582E-02
 -8.6955E-02 -8.1773E-02 -7.4026E-02 -7.2606E-02 -6.8874E-02 -6.0546E-02
 -6.0306E-02 -6.0176E-02 -5.7125E-02 -5.0277E-02 -4.0666E-02 -3.3286E-02
 -2.2751E-02 -1.8299E-02 -1.6535E-02 -1.0703E-02 -8.4034E-03 -1.0469E-03
  1.4119E-03  6.0123E-03  9.1585E-03  1.6259E-02  2.0333E-02  2.8165E-02
  3.2500E-02  4.0697E-02  7.9050E-02  8.4873E-02  1.2458E-01  1.2832E-01
  2.1575E-01  2.2604E-01  2.4293E-01  2.4416E-01  2.5285E-01  2.5457E-01
  2.5791E-01  2.6098E-01  2.7748E-01
  prteigrs : nnsclo,ikpt=  300    2 max resid (incl. the buffer)=  5.25935E-07
 Non-SCF case, kpt    3 (  0.40000  0.40000  0.10000), residuals and eigenvalues=
  4.17E-21  3.44E-21  3.78E-21  7.43E-21  6.83E-21  2.11E-21  1.42E-21  7.73E-22
  4.48E-21  2.19E-21  8.47E-21  4.38E-21  3.73E-21  5.99E-21  4.55E-21  8.72E-21
  2.21E-21  6.58E-21  9.52E-21  9.25E-21  4.80E-21  7.99E-21  6.89E-21  2.86E-21
  8.81E-21  3.71E-21  2.61E-21  3.21E-21  2.24E-21  2.25E-21  2.05E-21  1.90E-21
  9.13E-21  5.41E-21  6.09E-21  3.19E-21  4.47E-21  2.84E-21  2.25E-21  2.91E-21
  3.19E-21  5.42E-21  5.90E-21  9.18E-21  7.57E-21  7.73E-21  6.94E-21  4.10E-21
  4.07E-21  4.26E-21  2.55E-21  3.19E-21  4.44E-21  2.22E-21  2.79E-21  2.52E-21
  2.29E-21  4.48E-21  6.41E-21  4.34E-21  4.12E-21  8.51E-21  8.58E-21  9.69E-21
  3.41E-21  6.05E-21  7.26E-21  4.08E-21  6.88E-21  4.59E-21  6.68E-21  6.95E-21
  6.00E-21  2.90E-21  7.54E-21  4.51E-21  3.06E-21  8.75E-21  3.04E-21  9.97E-21
  2.51E-21  4.37E-21  3.94E-21  6.01E-21  4.51E-21  6.04E-21  4.64E-21  5.65E-21
  7.37E-21  2.84E-21  5.90E-21  2.92E-21  2.90E-21  5.37E-21  6.22E-21  2.05E-21
  2.85E-21  3.93E-21  7.94E-21  6.07E-21  6.29E-21  8.50E-21  4.08E-21  8.22E-21
  4.66E-21  8.83E-21  6.57E-21  5.50E-21  6.01E-21  3.95E-21  3.07E-21  7.75E-21
  7.26E-21  6.93E-21  9.85E-21  4.38E-21  3.48E-21  7.33E-21  6.78E-21  7.41E-21
  5.83E-21  5.75E-21  4.66E-21  6.33E-21  4.91E-21  6.63E-21  4.40E-21  3.79E-21
  6.80E-21  9.19E-21  4.41E-21  2.76E-21  2.07E-21  5.21E-21  3.87E-21  3.97E-21
  8.75E-21  6.04E-21  6.89E-21  2.92E-21  4.44E-21  9.16E-21  5.35E-21  3.68E-21
  6.08E-21  5.07E-21  5.92E-21  2.94E-21  8.62E-21  8.19E-21  9.67E-21  7.75E-21
  7.67E-21  6.72E-21  5.84E-21  2.25E-21  5.96E-21  4.90E-21  7.86E-21  9.21E-21
  8.94E-21  4.67E-21  7.48E-21  3.01E-13  7.79E-12
 -4.7056E+00 -4.7055E+00 -2.9420E+00 -2.9414E+00 -2.9411E+00 -2.9407E+00
 -2.9405E+00 -2.9403E+00 -1.6646E+00 -1.6642E+00 -1.6632E+00 -1.6628E+00
 -1.6627E+00 -1.6622E+00 -1.6618E+00 -1.6610E+00 -1.6606E+00 -1.6606E+00
 -1.6602E+00 -1.6594E+00 -1.6588E+00 -1.6586E+00 -1.6585E+00 -1.6580E+00
 -1.6580E+00 -1.6575E+00 -1.6575E+00 -1.6569E+00 -1.6568E+00 -1.6560E+00
 -1.6554E+00 -1.6551E+00 -1.6543E+00 -1.6541E+00 -1.6538E+00 -1.6534E+00
 -1.6530E+00 -1.6524E+00 -1.6520E+00 -1.6517E+00 -1.6508E+00 -1.6496E+00
 -1.6495E+00 -1.6485E+00 -1.6482E+00 -1.6477E+00 -1.6475E+00 -1.6467E+00
 -1.6373E+00 -1.6366E+00 -1.6356E+00 -1.6347E+00 -1.6340E+00 -1.6340E+00
 -1.6336E+00 -1.6318E+00 -1.6311E+00 -1.6310E+00 -6.5780E-01 -6.5736E-01
 -6.5692E-01 -6.5647E-01 -6.5587E-01 -6.5587E-01 -6.5558E-01 -6.5516E-01
 -6.5492E-01 -6.5489E-01 -6.5466E-01 -6.5459E-01 -6.5381E-01 -6.5359E-01
 -6.5281E-01 -6.5276E-01 -6.5275E-01 -6.5256E-01 -6.5249E-01 -6.5244E-01
 -6.5073E-01 -6.5048E-01 -6.4970E-01 -6.4952E-01 -6.4924E-01 -6.4922E-01
 -6.4857E-01 -6.4837E-01 -6.4811E-01 -6.4785E-01 -6.4742E-01 -6.4742E-01
 -6.4727E-01 -6.4724E-01 -6.4715E-01 -6.4701E-01 -6.4699E-01 -6.4644E-01
 -6.4634E-01 -6.4561E-01 -3.6311E-01 -3.6105E-01 -3.5878E-01 -3.5666E-01
 -3.5533E-01 -3.5496E-01 -3.5447E-01 -3.4681E-01 -3.2917E-01 -3.2711E-01
 -1.7068E-01 -1.6641E-01 -1.5893E-01 -1.5749E-01 -1.5609E-01 -1.5211E-01
 -1.5143E-01 -1.5108E-01 -1.5024E-01 -1.5012E-01 -1.4798E-01 -1.4674E-01
 -1.3382E-01 -1.3214E-01 -1.1439E-01 -1.1342E-01 -1.0295E-01 -9.4939E-02
 -9.1532E-02 -8.2928E-02 -7.0043E-02 -6.1405E-02 -5.6905E-02 -5.3563E-02
 -4.8901E-02 -4.6319E-02 -3.6810E-02 -3.6134E-02 -2.8763E-02 -2.5076E-02
 -1.8995E-02 -1.2475E-02 -7.7658E-03 -4.7682E-03 -4.3661E-03  2.4580E-03
  3.7901E-03  1.7157E-02  2.4652E-02  2.8380E-02  3.0261E-02  3.9767E-02
  3.9932E-02  4.7133E-02  7.5752E-02  8.9063E-02  1.2059E-01  1.3079E-01
  2.1009E-01  2.2351E-01  2.4431E-01  2.4667E-01  2.5403E-01  2.5730E-01
  2.6167E-01  2.7073E-01  2.7177E-01
  prteigrs : nnsclo,ikpt=  300    3 max resid (incl. the buffer)=  7.79050E-12
 Non-SCF case, kpt    4 (  0.35000  0.35000  0.15000), residuals and eigenvalues=
  9.85E-21  2.31E-21  9.29E-22  1.57E-21  1.50E-21  3.94E-21  2.35E-21  4.17E-21
  2.67E-21  3.19E-21  4.39E-21  7.11E-21  2.84E-21  2.48E-21  4.99E-21  8.40E-21
  8.56E-21  2.24E-21  2.57E-21  5.64E-21  3.40E-21  3.61E-21  2.48E-21  3.40E-21
  4.90E-21  4.20E-21  6.60E-21  3.54E-21  2.48E-21  3.75E-21  2.03E-21  3.98E-21
  3.67E-21  2.47E-21  6.84E-21  3.20E-21  3.54E-21  3.08E-21  2.71E-21  2.94E-21
  6.87E-21  4.07E-21  2.30E-21  8.47E-21  5.71E-21  2.68E-21  4.05E-21  3.11E-21
  7.29E-21  4.30E-21  3.68E-21  5.36E-21  5.19E-21  3.63E-21  3.30E-21  6.53E-21
  9.03E-21  4.42E-21  9.90E-21  7.87E-21  6.41E-21  8.72E-21  7.23E-21  2.44E-21
  7.29E-21  4.55E-21  3.04E-21  2.91E-21  4.93E-21  3.23E-21  3.59E-21  2.81E-21
[...]
                       4.37500000E-01  4.37500000E-01  5.00000000E-01
              kpt2     5.00000000E-01  5.00000000E-01  0.00000000E+00
                       4.50000000E-01  4.50000000E-01  5.00000000E-02
                       4.00000000E-01  4.00000000E-01  1.00000000E-01
                       3.50000000E-01  3.50000000E-01  1.50000000E-01
                       3.00000000E-01  3.00000000E-01  2.00000000E-01
                       2.50000000E-01  2.50000000E-01  2.50000000E-01
                       2.00000000E-01  2.00000000E-01  3.00000000E-01
                       1.50000000E-01  1.50000000E-01  3.50000000E-01
                       1.00000000E-01  1.00000000E-01  4.00000000E-01
                       5.00000000E-02  5.00000000E-02  4.50000000E-01
                       0.00000000E+00  0.00000000E+00  5.00000000E-01
                       0.00000000E+00  0.00000000E+00  4.58333333E-01
                       0.00000000E+00  0.00000000E+00  4.16666667E-01
                       0.00000000E+00  0.00000000E+00  3.75000000E-01
                       0.00000000E+00  0.00000000E+00  3.33333333E-01
                       0.00000000E+00  0.00000000E+00  2.91666667E-01
                       0.00000000E+00  0.00000000E+00  2.50000000E-01
                       0.00000000E+00  0.00000000E+00  2.08333333E-01
                       0.00000000E+00  0.00000000E+00  1.66666667E-01
                       0.00000000E+00  0.00000000E+00  1.25000000E-01
                       0.00000000E+00  0.00000000E+00  8.33333333E-02
                       0.00000000E+00  0.00000000E+00  4.16666667E-02
                       0.00000000E+00  0.00000000E+00  0.00000000E+00
                       2.77777778E-02  2.77777778E-02  2.77777778E-02
                       5.55555556E-02  5.55555556E-02  5.55555556E-02
                       8.33333333E-02  8.33333333E-02  8.33333333E-02
                       1.11111111E-01  1.11111111E-01  1.11111111E-01
                       1.38888889E-01  1.38888889E-01  1.38888889E-01
                       1.66666667E-01  1.66666667E-01  1.66666667E-01
                       1.94444444E-01  1.94444444E-01  1.94444444E-01
                       2.22222222E-01  2.22222222E-01  2.22222222E-01
                       2.50000000E-01  2.50000000E-01  2.50000000E-01
                       2.77777778E-01  2.77777778E-01  2.77777778E-01
                       3.05555556E-01  3.05555556E-01  3.05555556E-01
                       3.33333333E-01  3.33333333E-01  3.33333333E-01
                       3.61111111E-01  3.61111111E-01  3.61111111E-01
                       3.88888889E-01  3.88888889E-01  3.88888889E-01
                       4.16666667E-01  4.16666667E-01  4.16666667E-01
                       4.44444444E-01  4.44444444E-01  4.44444444E-01
                       4.72222222E-01  4.72222222E-01  4.72222222E-01
                       5.00000000E-01  5.00000000E-01  5.00000000E-01
                       4.37500000E-01  5.00000000E-01  5.00000000E-01
                       3.75000000E-01  5.00000000E-01  5.00000000E-01
                       3.12500000E-01  5.00000000E-01  5.00000000E-01
                       2.50000000E-01  5.00000000E-01  5.00000000E-01
                       1.87500000E-01  5.00000000E-01  5.00000000E-01
                       1.25000000E-01  5.00000000E-01  5.00000000E-01
                       6.25000000E-02  5.00000000E-01  5.00000000E-01
                       0.00000000E+00  5.00000000E-01  5.00000000E-01
                       0.00000000E+00  5.00000000E-01  4.37500000E-01
              kpt3     6.25000000E-02  6.25000000E-02  5.00000000E-01
                       1.87500000E-01  6.25000000E-02  5.00000000E-01
                       3.12500000E-01  6.25000000E-02  5.00000000E-01
                       4.37500000E-01  6.25000000E-02  5.00000000E-01
                       1.87500000E-01  1.87500000E-01  5.00000000E-01
                       3.12500000E-01  1.87500000E-01  5.00000000E-01
                       4.37500000E-01  1.87500000E-01  5.00000000E-01
                       3.12500000E-01  3.12500000E-01  5.00000000E-01
                       4.37500000E-01  3.12500000E-01  5.00000000E-01
                       4.37500000E-01  4.37500000E-01  5.00000000E-01
                       outvar_i_n : Printing only first  50 k-points.
           kptopt1          1
           kptopt2         -5
           kptopt3          1
         kptrlatt        8    0    0      0    8    0      0    0    1
          kptrlen1     6.20994534E+01
          kptrlen2     3.00000000E+01
          kptrlen3     6.20994534E+01
P           mkmem1          2
P           mkmem2         10
P           mkmem3          2
            natom          20
           natsph3       4
            nband1        165
            nband2        165
            nband3        165
           nbdbuf1          0
           nbdbuf2          2
           nbdbuf3          2
           ndtset           3
            ngfft          36      36     288
             nkpt1         10
             nkpt2         57
             nkpt3         10
            nstep1        400
            nstep2        300
            nstep3        300
             nsym           8
           ntypat           3
              occ      2.000000  2.000000  2.000000  2.000000  2.000000  2.000000
                       2.000000  2.000000  2.000000  2.000000  2.000000  2.000000
                       2.000000  2.000000  2.000000  2.000000  2.000000  2.000000
                       2.000000  2.000000  2.000000  2.000000  2.000000  2.000000
                       2.000000  2.000000  2.000000  2.000000  2.000000  2.000000
                       2.000000  2.000000  2.000000  2.000000  2.000000  2.000000
                       2.000000  2.000000  2.000000  2.000000  2.000000  2.000000
                       2.000000  2.000000  2.000000  2.000000  2.000000  2.000000
                       2.000000  2.000000  2.000000  2.000000  2.000000  2.000000
                       2.000000  2.000000  2.000000  2.000000  2.000000  2.000000
                       2.000000  2.000000  2.000000  2.000000  2.000000  2.000000
                       2.000000  2.000000  2.000000  2.000000  2.000000  2.000000
                       2.000000  2.000000  2.000000  2.000000  2.000000  2.000000
                       2.000000  2.000000  2.000000  2.000000  2.000000  2.000000
                       2.000000  2.000000  2.000000  2.000000  2.000000  2.000000
                       2.000000  2.000000  2.000000  2.000000  2.000000  2.000000
                       2.000000  2.000000  2.000000  2.000000  2.000000  2.000000
                       2.000000  2.000000  2.000000  2.000000  2.000000  2.000000
                       2.000000  2.000000  2.000000  2.000000  2.000000  2.000000
                       2.000000  2.000000  2.000000  2.000000  2.000000  2.000000
                       2.000000  2.000000  2.000000  2.000000  2.000000  2.000000
                       2.000000  2.000000  2.000000  2.000000  2.000000  2.000000
                       2.000000  2.000000  2.000000  2.000000  2.000000  2.000000
                       2.000000  2.000000  2.000000  2.000000  2.000000  2.000000
                       2.000000  2.000000  2.000000  2.000000  2.000000  2.000000
                       2.000000  2.000000  2.000000  2.000000  2.000000  2.000000
                       0.000000  0.000000  0.000000  0.000000  0.000000  0.000000
                       0.000000  0.000000  0.000000
           prtcif           1
           prtdos1          0
           prtdos2          0
           prtdos3          3
            rprim      1.0000000000E+00  0.0000000000E+00  0.0000000000E+00
                       0.0000000000E+00  1.0000000000E+00  0.0000000000E+00
                       1.0000000000E-15  1.0000000000E-15  8.3913010243E+00
           shiftk      5.00000000E-01  5.00000000E-01  5.00000000E-01
          spgroup          99
           strten1     1.6109017780E-02  1.6109017780E-02  1.5841163243E-02
                       0.0000000000E+00  0.0000000000E+00  0.0000000000E+00
           symrel      1  0  0   0  1  0   0  0  1       1  0  0   0 -1  0   0  0  1
                      -1  0  0   0 -1  0   0  0  1      -1  0  0   0  1  0   0  0  1
                       0  1  0   1  0  0   0  0  1       0  1  0  -1  0  0   0  0  1
                       0 -1  0  -1  0  0   0  0  1       0 -1  0   1  0  0   0  0  1
            tnons      0.0000000  0.0000000  0.0000000     0.0000000 -0.0000000  0.0000000
                      -0.0000000 -0.0000000  0.0000000    -0.0000000  0.0000000  0.0000000
                       0.5000000  0.5000000  0.0000000     0.5000000  0.5000000  0.0000000
                       0.5000000  0.5000000  0.0000000     0.5000000  0.5000000  0.0000000
           tolwfr      1.00000000E-20
            typat      1  1  1  1  1  1  1  1  2  2  2  2  2  2  2  2  2  2  3  3
           vdw_xc           5
              wtk1       0.06250    0.12500    0.12500    0.12500    0.06250    0.12500
                         0.12500    0.06250    0.12500    0.06250
              wtk2       1.00000    1.00000    1.00000    1.00000    1.00000    1.00000
                         1.00000    1.00000    1.00000    1.00000    1.00000    1.00000
                         1.00000    1.00000    1.00000    1.00000    1.00000    1.00000
                         1.00000    1.00000    1.00000    1.00000    1.00000    1.00000
                         1.00000    1.00000    1.00000    1.00000    1.00000    1.00000
                         1.00000    1.00000    1.00000    1.00000    1.00000    1.00000
                         1.00000    1.00000    1.00000    1.00000    1.00000    1.00000
                         1.00000    1.00000    1.00000    1.00000    1.00000    1.00000
                         1.00000    1.00000
              wtk3       0.06250    0.12500    0.12500    0.12500    0.06250    0.12500
                         0.12500    0.06250    0.12500    0.06250
                       outvars : Printing only first  50 k-points.
           xangst      2.0538509643E+00  5.5610890249E-16  4.6664772030E+00
                       8.8378439303E-16  2.0538509643E+00  7.4161008824E+00
                       2.0538509643E+00  1.2038893889E-15  1.0102198262E+01
                       1.5315648795E-15  2.0538509643E+00  1.2851821942E+01
                       2.0538509643E+00  1.8516698753E-15  1.5537919322E+01
                       2.1793453659E-15  2.0538509643E+00  1.8287543001E+01
                       2.0538509643E+00  2.4994503618E-15  2.0973640381E+01
                       2.8271299600E-15  2.0538509643E+00  2.3723298529E+01
                       5.5989209596E-16  2.0538509643E+00  4.6982231183E+00
                       2.0538509643E+00  8.7999709185E-16  7.3843204982E+00
                       1.2076766901E-15  2.0538509643E+00  1.0133978647E+01
                       2.0538509643E+00  1.5277816860E-15  1.2820076026E+01
                       1.8554571765E-15  2.0538509643E+00  1.5569699706E+01
                       2.0538509643E+00  2.1755621724E-15  1.8255797086E+01
                       2.5032376629E-15  2.0538509643E+00  2.1005420765E+01
                       2.0538509643E+00  2.8233426588E-15  2.3691518145E+01
                       2.0538509643E+00  3.1952704222E-15  2.6812475967E+01
                       3.5515930260E-15  2.0538509643E+00  2.9802486197E+01
                       2.0538509643E+00  2.0538509643E+00  2.8307498317E+01
                       3.3734337780E-15  3.3734337780E-15  2.8307498317E+01
            xcart      3.8812158402E+00  1.0508935258E-15  8.8183639191E+00
                       1.6701104633E-15  3.8812158402E+00  1.4014399642E+01
                       3.8812158402E+00  2.2750212393E-15  1.9090388056E+01
                       2.8942381769E-15  3.8812158402E+00  2.4286423778E+01
                       3.8812158402E+00  3.4991489529E-15  2.9362412193E+01
                       4.1183658905E-15  3.8812158402E+00  3.4558447915E+01
                       3.8812158402E+00  4.7232766665E-15  3.9634436329E+01
                       5.3425013665E-15  3.8812158402E+00  4.4830537189E+01
                       1.0580427253E-15  3.8812158402E+00  8.8783550048E+00
                       3.8812158402E+00  1.6629535013E-15  1.3954343419E+01
                       2.2821782013E-15  3.8812158402E+00  1.9150444278E+01
                       3.8812158402E+00  2.8870889773E-15  2.4226432693E+01
                       3.5063059149E-15  3.8812158402E+00  2.9422468415E+01
                       3.8812158402E+00  4.1112166909E-15  3.4498456829E+01
                       4.7304336285E-15  3.8812158402E+00  3.9694492552E+01
                       3.8812158402E+00  5.3353444045E-15  4.4770480966E+01
                       3.8812158402E+00  6.0381860185E-15  5.0668236522E+01
                       6.7115381547E-15  3.8812158402E+00  5.6318536992E+01
                       3.8812158402E+00  3.8812158402E+00  5.3493419325E+01
                       6.3748659678E-15  6.3748659678E-15  5.3493419325E+01
             xred      5.0000000000E-01  2.5451086397E-32  1.3538200000E-01
                      -1.2553174550E-32  5.0000000000E-01  2.1515300000E-01
                       5.0000000000E-01 -2.5603026039E-32  2.9308100000E-01
                      -4.1574609594E-32  5.0000000000E-01  3.7285200000E-01
                       5.0000000000E-01 -5.4624461082E-32  4.5078000000E-01
                      -1.1466139942E-31  5.0000000000E-01  5.3055100000E-01
                       5.0000000000E-01  2.0200168819E-32  6.0847900000E-01
                      -7.4331858357E-32  5.0000000000E-01  6.8825100000E-01
                      -5.4468158982E-33  5.0000000000E-01  1.3630300000E-01
                       5.0000000000E-01 -1.8496667387E-32  2.1423100000E-01
                      -4.6930662386E-32  5.0000000000E-01  2.9400300000E-01
                       5.0000000000E-01 -1.0676707299E-32  3.7193100000E-01
                       2.7893967515E-32  5.0000000000E-01  4.5170200000E-01
                       5.0000000000E-01  9.6056642341E-33  5.2963000000E-01
                      -5.0431274105E-32  5.0000000000E-01  6.0940100000E-01
                       5.0000000000E-01 -1.1278493217E-31  6.8732900000E-01
                       5.0000000000E-01 -9.3691669479E-32  7.7787300000E-01
                      -1.0526112392E-31  5.0000000000E-01  8.6461800000E-01
                       5.0000000000E-01  5.0000000000E-01  8.2124600000E-01
                      -6.7420134542E-32 -6.7420134542E-32  8.2124600000E-01
            znucl       50.00000   34.00000   30.00000

================================================================================


- Timing analysis has been suppressed with timopt=0



================================================================================

 Suggested references for the acknowledgment of ABINIT usage.

 The users of ABINIT have little formal obligations with respect to the ABINIT group
 (those specified in the GNU General Public License, http://www.gnu.org/copyleft/gpl.txt).
 However, it is common practice in the scientific literature,
 to acknowledge the efforts of people that have made the research possible.
 In this spirit, please find below suggested citations of work written by ABINIT developers,
 corresponding to implementations inside of ABINIT that you have used in the present run.
 Note also that it will be of great value to readers of publications presenting these results,
 to read papers enabling them to understand the theoretical formalism and details
 of the ABINIT implementation.
 For information on why they are suggested, see also https://docs.abinit.org/theory/acknowledgments.
-
- [1] Libxc: A library of exchange and correlation functionals for density functional theory.
- M.A.L. Marques, M.J.T. Oliveira, T. Burnus, Computer Physics Communications 183, 2227 (2012).
- Comment: to be cited when LibXC is used (negative value of ixc)
- Strong suggestion to cite this paper.
- DOI and bibtex: see https://docs.abinit.org/theory/bibliography/#marques2012
-
- [2] The Abinit project: Impact, environment and recent developments.
- Computer Phys. Comm. 248, 107042 (2020).
- X.Gonze, B. Amadon, G. Antonius, F.Arnardi, L.Baguet, J.-M.Beuken,
- J.Bieder, F.Bottin, J.Bouchet, E.Bousquet, N.Brouwer, F.Bruneval,
- G.Brunin, T.Cavignac, J.-B. Charraud, Wei Chen, M.Cote, S.Cottenier,
- J.Denier, G.Geneste, Ph.Ghosez, M.Giantomassi, Y.Gillet, O.Gingras,
- D.R.Hamann, G.Hautier, Xu He, N.Helbig, N.Holzwarth, Y.Jia, F.Jollet,
- W.Lafargue-Dit-Hauret, K.Lejaeghere, M.A.L.Marques, A.Martin, C.Martins,
- H.P.C. Miranda, F.Naccarato, K. Persson, G.Petretto, V.Planes, Y.Pouillon,
- S.Prokhorenko, F.Ricci, G.-M.Rignanese, A.H.Romero, M.M.Schmitt, M.Torrent,
- M.J.van Setten, B.Van Troeye, M.J.Verstraete, G.Zerah and J.W.Zwanzig
- Comment: the fifth generic paper describing the ABINIT project.
- Note that a version of this paper, that is not formatted for Computer Phys. Comm. 
- is available at https://www.abinit.org/sites/default/files/ABINIT20.pdf .
- The licence allows the authors to put it on the Web.
- DOI and bibtex: see https://docs.abinit.org/theory/bibliography/#gonze2020
-
- [3] Optimized norm-conserving Vanderbilt pseudopotentials.
- D.R. Hamann, Phys. Rev. B 88, 085117 (2013).
- Comment: Some pseudopotential generated using the ONCVPSP code were used.
- DOI and bibtex: see https://docs.abinit.org/theory/bibliography/#hamann2013
-
- [4] ABINIT: Overview, and focus on selected capabilities
- J. Chem. Phys. 152, 124102 (2020).
- A. Romero, D.C. Allan, B. Amadon, G. Antonius, T. Applencourt, L.Baguet,
- J.Bieder, F.Bottin, J.Bouchet, E.Bousquet, F.Bruneval,
- G.Brunin, D.Caliste, M.Cote,
- J.Denier, C. Dreyer, Ph.Ghosez, M.Giantomassi, Y.Gillet, O.Gingras,
- D.R.Hamann, G.Hautier, F.Jollet, G. Jomard,
- A.Martin, 
- H.P.C. Miranda, F.Naccarato, G.Petretto, N.A. Pike, V.Planes,
- S.Prokhorenko, T. Rangel, F.Ricci, G.-M.Rignanese, M.Royo, M.Stengel, M.Torrent,
- M.J.van Setten, B.Van Troeye, M.J.Verstraete, J.Wiktor, J.W.Zwanziger, and X.Gonze.
- Comment: a global overview of ABINIT, with focus on selected capabilities .
- Note that a version of this paper, that is not formatted for J. Chem. Phys 
- is available at https://www.abinit.org/sites/default/files/ABINIT20_JPC.pdf .
- The licence allows the authors to put it on the Web.
- DOI and bibtex: see https://docs.abinit.org/theory/bibliography/#romero2020
-
- [5] Recent developments in the ABINIT software package.
- Computer Phys. Comm. 205, 106 (2016).
- X.Gonze, F.Jollet, F.Abreu Araujo, D.Adams, B.Amadon, T.Applencourt,
- C.Audouze, J.-M.Beuken, J.Bieder, A.Bokhanchuk, E.Bousquet, F.Bruneval
- D.Caliste, M.Cote, F.Dahm, F.Da Pieve, M.Delaveau, M.Di Gennaro,
- B.Dorado, C.Espejo, G.Geneste, L.Genovese, A.Gerossier, M.Giantomassi,
- Y.Gillet, D.R.Hamann, L.He, G.Jomard, J.Laflamme Janssen, S.Le Roux,
- A.Levitt, A.Lherbier, F.Liu, I.Lukacevic, A.Martin, C.Martins,
- M.J.T.Oliveira, S.Ponce, Y.Pouillon, T.Rangel, G.-M.Rignanese,
- A.H.Romero, B.Rousseau, O.Rubel, A.A.Shukri, M.Stankovski, M.Torrent,
- M.J.Van Setten, B.Van Troeye, M.J.Verstraete, D.Waroquier, J.Wiktor,
- B.Xu, A.Zhou, J.W.Zwanziger.
- Comment: the fourth generic paper describing the ABINIT project.
- Note that a version of this paper, that is not formatted for Computer Phys. Comm. 
- is available at https://www.abinit.org/sites/default/files/ABINIT16.pdf .
- The licence allows the authors to put it on the Web.
- DOI and bibtex: see https://docs.abinit.org/theory/bibliography/#gonze2016
-
- Proc.   0 individual time (sec): cpu=      35051.4  wall=      35052.8

================================================================================

 Calculation completed.
.Delivered   1 WARNINGs and   0 COMMENTs to log file.
+Overall time at end (sec) : cpu=     210310.1  wall=     210316.4
