  ABINIT 9.2.2
  
 DeprecationWarning: 

     The files file has been deprecated in Abinit9 and will be removed in Abinit10.
     Use the syntax `abinit t01.abi` where t01.abi is an input with pseudopotenials.

            pseudos = "al.psp8, as.psp8"


  Give name for formatted input file: 
Cs2TiI6.in
  Give name for formatted output file:
Cs2TiI6.out
  Give root name for generic input files:
Cs2TiI6i
  Give root name for generic output files:
Cs2TiI6o
  Give root name for generic temporary files:
Cs2TiI6

--- !COMMENT
src_file: m_dtfil.F90
src_line: 1470
message: |
    Output file: Cs2TiI6.out already exists.
...


--- !COMMENT
src_file: m_dtfil.F90
src_line: 1494
message: |
    Renaming old: Cs2TiI6.out to: Cs2TiI6.out0001
...


.Version 9.2.2 of ABINIT 
.(MPI version, prepared for a x86_64_linux_gnu9.3 computer) 

.Copyright (C) 1998-2020 ABINIT group . 
 ABINIT comes with ABSOLUTELY NO WARRANTY.
 It is free software, and you are welcome to redistribute it
 under certain conditions (GNU General Public License,
 see ~abinit/COPYING or http://www.gnu.org/copyleft/gpl.txt).

 ABINIT is a project of the Universite Catholique de Louvain,
 Corning Inc. and other collaborators, see ~abinit/doc/developers/contributors.txt .
 Please read https://docs.abinit.org/theory/acknowledgments for suggested
 acknowledgments of the ABINIT effort.
 For more information, see https://www.abinit.org .

.Starting date : Sun 17 Mar 2024.
- ( at 17h56 )
  
- The starting date is more than 3 years after the initial release
- of this version of ABINIT, namely Nov 2020.
- This version of ABINIT is not supported anymore.
- Action: please, switch to a more recent version of ABINIT.

 ++++++++++++++++++++++++++++++++++++++++++++++++++++++++++++++++++++++++++++++

 === Build Information === 
  Version       : 9.2.2
  Build target  : x86_64_linux_gnu9.3
  Build date    : 20210501

 === Compiler Suite === 
  C compiler       : gnu9.3
  C++ compiler     : generic0.0
  Fortran compiler : gnu9.3
  CFLAGS           : -g -O2 -mtune=native -march=native
  CXXFLAGS         : 
  FCFLAGS          : -g -ffree-line-length-none
  FC_LDFLAGS       : 

 === Optimizations === 
  Debug level        : basic
  Optimization level : standard
  Architecture       : unknown_unknown

 === Multicore === 
  Parallel build : yes
  Parallel I/O   : yes
  openMP support : 
  GPU support    : 

 === Connectors / Fallbacks === 
  LINALG flavor  : netlib
  FFT flavor     : goedecker
  HDF5           : yes
  NetCDF         : yes
  NetCDF Fortran : yes
  LibXC          : yes
  Wannier90      : no

 === Experimental features === 
  Exports             : 
  GW double-precision : 

 ++++++++++++++++++++++++++++++++++++++++++++++++++++++++++++++++++++++++++++++


 ++++++++++++++++++++++++++++++++++++++++++++++++++++++++++++++++++++++++++++++
 Default optimizations:
   -O2 -mtune=native -march=native


 Optimizations for 43_ptgroups:
   -O0


 ++++++++++++++++++++++++++++++++++++++++++++++++++++++++++++++++++++++++++++++


 ++++++++++++++++++++++++++++++++++++++++++++++++++++++++++++++++++++++++++++++
 CPP options activated during the build:

                    CC_GNU                    FC_GNU HAVE_FC_ALLOCATABLE_DT...
 
             HAVE_FC_ASYNC         HAVE_FC_BACKTRACE  HAVE_FC_COMMAND_ARGUMENT
 
      HAVE_FC_COMMAND_LINE        HAVE_FC_CONTIGUOUS           HAVE_FC_CPUTIME
 
              HAVE_FC_EXIT             HAVE_FC_FLUSH             HAVE_FC_GAMMA
 
            HAVE_FC_GETENV   HAVE_FC_IEEE_ARITHMETIC   HAVE_FC_IEEE_EXCEPTIONS
 
          HAVE_FC_INT_QUAD             HAVE_FC_IOMSG     HAVE_FC_ISO_C_BINDING
 
  HAVE_FC_ISO_FORTRAN_2008        HAVE_FC_LONG_LINES        HAVE_FC_MOVE_ALLOC
 
  HAVE_FC_ON_THE_FLY_SHAPE           HAVE_FC_PRIVATE         HAVE_FC_PROTECTED
 
           HAVE_FC_SHIFTLR         HAVE_FC_STREAM_IO            HAVE_FC_SYSTEM
 
          HAVE_FORTRAN2003                 HAVE_HDF5        HAVE_LIBPAW_ABINIT
 
      HAVE_LIBTETRA_ABINIT                HAVE_LIBXC                  HAVE_MPI
 
                 HAVE_MPI2       HAVE_MPI_IALLGATHER       HAVE_MPI_IALLREDUCE
 
        HAVE_MPI_IALLTOALL       HAVE_MPI_IALLTOALLV           HAVE_MPI_IBCAST
 
         HAVE_MPI_IGATHERV        HAVE_MPI_INTEGER16               HAVE_MPI_IO
 
 HAVE_MPI_TYPE_CREATE_S...               HAVE_NETCDF       HAVE_NETCDF_FORTRAN
 
             HAVE_OS_LINUX         HAVE_TIMER_ABINIT                            
 ++++++++++++++++++++++++++++++++++++++++++++++++++++++++++++++++++++++++++++++

- input  file    -> Cs2TiI6.in
- output file    -> Cs2TiI6.out
- root for input  files -> Cs2TiI6i
- root for output files -> Cs2TiI6o

-instrng: 74 lines of input have been read from file Cs2TiI6.in


 Please give name of formatted atomic psp file (and finish with a newline character)
 For atom type 1, psp file is ../../../Psps_for_tests/ATOMICDATA_NC/Sn.psp8

 Please give name of formatted atomic psp file (and finish with a newline character)
 For atom type 2, psp file is ../../../Psps_for_tests/ATOMICDATA_NC/Se.psp8

 Please give name of formatted atomic psp file (and finish with a newline character)
 For atom type 3, psp file is ../../../Psps_for_tests/ATOMICDATA_NC/Zn.psp8
  read the values zionpsp= 14.0 , pspcod=   8 , lmax=   2
  read the values zionpsp= 16.0 , pspcod=   8 , lmax=   2
  read the values zionpsp= 20.0 , pspcod=   8 , lmax=   2

 inpspheads: deduce mpsang = 3, n1xccc = 2501.

======================================================= 
 invars1m : enter jdtset= 1

 symlatt: the Bravais lattice is tP (primitive tetragonal)
  xred   is defined in input file
 ingeo: takes atomic coordinates from input array xred

--- !WARNING
src_file: m_ingeo.F90
src_line: 887
message: |
    The tolerance on symmetries =   1.000E-05 is bigger than 1.0e-8.
    In order to avoid spurious effects, the atomic coordinates have been
    symmetrized before storing them in the dataset internal variable.
    So, do not be surprised by the fact that your input variables (xcart, xred, ...)
    do not correspond to the ones echoed by ABINIT, the latter being used to do the calculations.
    In order to avoid this symmetrization (e.g. for specific debugging/development), decrease tolsym to 1.0e-8 or lower.
...


 symlatt: the Bravais lattice is tP (primitive tetragonal)

 symlatt: the Bravais lattice is tP (primitive tetragonal)
 symspgr: spgroup=  99  P4 m m   (=C4v^1)
 symspgr: optical characteristics = uniaxial
 Optical axis (in reduced coordinates, real space ) :   0   0   1

======================================================= 
 invars1m : enter jdtset= 2

 symlatt: the Bravais lattice is tP (primitive tetragonal)
  xred   is defined in input file
 ingeo: takes atomic coordinates from input array xred

--- !WARNING
src_file: m_ingeo.F90
src_line: 887
message: |
    The tolerance on symmetries =   1.000E-05 is bigger than 1.0e-8.
    In order to avoid spurious effects, the atomic coordinates have been
    symmetrized before storing them in the dataset internal variable.
    So, do not be surprised by the fact that your input variables (xcart, xred, ...)
    do not correspond to the ones echoed by ABINIT, the latter being used to do the calculations.
    In order to avoid this symmetrization (e.g. for specific debugging/development), decrease tolsym to 1.0e-8 or lower.
...


 symlatt: the Bravais lattice is tP (primitive tetragonal)

 symlatt: the Bravais lattice is tP (primitive tetragonal)
 symspgr: spgroup=  99  P4 m m   (=C4v^1)
 symspgr: optical characteristics = uniaxial
 Optical axis (in reduced coordinates, real space ) :   0   0   1

======================================================= 
 invars1m : enter jdtset= 3

 symlatt: the Bravais lattice is tP (primitive tetragonal)
  xred   is defined in input file
 ingeo: takes atomic coordinates from input array xred

--- !WARNING
src_file: m_ingeo.F90
src_line: 887
message: |
    The tolerance on symmetries =   1.000E-05 is bigger than 1.0e-8.
    In order to avoid spurious effects, the atomic coordinates have been
    symmetrized before storing them in the dataset internal variable.
    So, do not be surprised by the fact that your input variables (xcart, xred, ...)
    do not correspond to the ones echoed by ABINIT, the latter being used to do the calculations.
    In order to avoid this symmetrization (e.g. for specific debugging/development), decrease tolsym to 1.0e-8 or lower.
...


 symlatt: the Bravais lattice is tP (primitive tetragonal)

 symlatt: the Bravais lattice is tP (primitive tetragonal)
 symspgr: spgroup=  99  P4 m m   (=C4v^1)
 symspgr: optical characteristics = uniaxial
 Optical axis (in reduced coordinates, real space ) :   0   0   1

--- !WARNING
src_file: m_mpinfo.F90
src_line: 2281
message: |
    nkpt*nsppol (10) is not a multiple of nproc_kpt (6)
    The k-point parallelisation is inefficient. (Ignore this warning if this is not a GS run)
...

 For input ecut=  2.250000E+01 best grid ngfft=      36      36     288
       max ecut=  2.411796E+01

 ==== FFT mesh ====
  FFT mesh divisions ........................    36   36  288
  Augmented FFT divisions ...................    37   37  288
  FFT algorithm .............................   112
  FFT cache size ............................    16
 getmpw: optimal value of mpw= 20066

--- !WARNING
src_file: m_mpinfo.F90
src_line: 2281
message: |
    nkpt*nsppol (57) is not a multiple of nproc_kpt (6)
    The k-point parallelisation is inefficient. (Ignore this warning if this is not a GS run)
...

 For input ecut=  2.250000E+01 best grid ngfft=      36      36     288
       max ecut=  2.411796E+01

 ==== FFT mesh ====
  FFT mesh divisions ........................    36   36  288
  Augmented FFT divisions ...................    37   37  288
  FFT algorithm .............................   112
  FFT cache size ............................    16
 getmpw: optimal value of mpw= 20127

--- !WARNING
src_file: m_mpinfo.F90
src_line: 2281
message: |
    nkpt*nsppol (10) is not a multiple of nproc_kpt (6)
    The k-point parallelisation is inefficient. (Ignore this warning if this is not a GS run)
...

 For input ecut=  2.250000E+01 best grid ngfft=      36      36     288
       max ecut=  2.411796E+01

 ==== FFT mesh ====
  FFT mesh divisions ........................    36   36  288
  Augmented FFT divisions ...................    37   37  288
  FFT algorithm .............................   112
  FFT cache size ............................    16
 getmpw: optimal value of mpw= 20066

 DATASET    1 : space group P4 m m (# 99); Bravais tP (primitive tetrag.)

 getdim_nloc : deduce lmnmax  =  18, lnmax  =   6,
                      lmnmaxso=  18, lnmaxso=   6.
memory: analysis of memory needs
================================================================================
 Values of the parameters that define the memory need for DATASET  1.
     intxc =       0    ionmov =       0      iscf =      17    lmnmax =       6
     lnmax =       6     mgfft =     288  mpssoang =       3    mqgrid =   13909
     natom =      20  nloc_mem =       1    nspden =       1   nspinor =       1
    nsppol =       1      nsym =       8    n1xccc =    2501    ntypat =       3
    occopt =       1   xclevel =       2
-    mband =         165        mffmem =           1         mkmem =           2
       mpw =       20066          nfft =      373248          nkpt =          10
================================================================================
P This job should need less than                     235.889 Mbytes of memory.
  Rough estimation (10% accuracy) of disk space for files :
_ WF disk file :    505.204 Mbytes ; DEN or POT disk file :      2.850 Mbytes.
================================================================================

 Biggest array : cg(disk), with    101.0423 MBytes.
 memana : allocated an array of    101.042 Mbytes, for testing purposes.
 memana: allocated     235.889Mbytes, for testing purposes. 
 The job will continue.

 DATASET    2 : space group P4 m m (# 99); Bravais tP (primitive tetrag.)

 getdim_nloc : deduce lmnmax  =  18, lnmax  =   6,
                      lmnmaxso=  18, lnmaxso=   6.
memory: analysis of memory needs
================================================================================
 Values of the parameters that define the memory need for DATASET  2.
     intxc =       0    ionmov =       0      iscf =      -2    lmnmax =       6
     lnmax =       6     mgfft =     288  mpssoang =       3    mqgrid =   13909
     natom =      20  nloc_mem =       1    nspden =       1   nspinor =       1
    nsppol =       1      nsym =       8    n1xccc =    2501    ntypat =       3
    occopt =       1   xclevel =       2
-    mband =         165        mffmem =           1         mkmem =          10
       mpw =       20127          nfft =      373248          nkpt =          57
================================================================================
P This job should need less than                     589.682 Mbytes of memory.
  Rough estimation (10% accuracy) of disk space for files :
_ WF disk file :   2888.406 Mbytes ; DEN or POT disk file :      2.850 Mbytes.
================================================================================

 Biggest array : cg(disk), with    506.7395 MBytes.
 memana : allocated an array of    506.740 Mbytes, for testing purposes.
 memana: allocated     589.682Mbytes, for testing purposes. 
 The job will continue.

 DATASET    3 : space group P4 m m (# 99); Bravais tP (primitive tetrag.)

 getdim_nloc : deduce lmnmax  =  18, lnmax  =   6,
                      lmnmaxso=  18, lnmaxso=   6.
memory: analysis of memory needs
================================================================================
 Values of the parameters that define the memory need for DATASET  3.
     intxc =       0    ionmov =       0      iscf =      -3    lmnmax =       6
     lnmax =       6     mgfft =     288  mpssoang =       3    mqgrid =   13909
     natom =      20  nloc_mem =       1    nspden =       1   nspinor =       1
    nsppol =       1      nsym =       8    n1xccc =    2501    ntypat =       3
    occopt =       1   xclevel =       2
-    mband =         165        mffmem =           1         mkmem =           2
       mpw =       20066          nfft =      373248          nkpt =          10
================================================================================
P This job should need less than                     178.936 Mbytes of memory.
  Rough estimation (10% accuracy) of disk space for files :
_ WF disk file :    505.204 Mbytes ; DEN or POT disk file :      2.850 Mbytes.
================================================================================

 Biggest array : cg(disk), with    101.0423 MBytes.
 memana : allocated an array of    101.042 Mbytes, for testing purposes.
 memana: allocated     178.936Mbytes, for testing purposes. 
 The job will continue.
--------------------------------------------------------------------------------
------------- Echo of variables that govern the present computation ------------
--------------------------------------------------------------------------------
-
- outvars: echo of selected default values                                      
-   iomode0 =  0 , fftalg0 =112 , wfoptalg0 =  0
-
- outvars: echo of global parameters not present in the input file              
-  max_nthreads =    0
-
 -outvars: echo values of preprocessed input variables --------
 
 These variables are accessible in NetCDF format (Cs2TiI6o_OUT.nc)

            acell      7.7624316804E+00  7.7624316804E+00  7.7624316804E+00 Bohr
              amu      1.18710000E+02  7.89600000E+01  6.53900000E+01
           diemac      1.20000000E+01
        dosdeltae1     0.00000000E+00 Hartree
        dosdeltae2     0.00000000E+00 Hartree
        dosdeltae3     1.00000000E-03 Hartree
             ecut      2.25000000E+01 Hartree
-          fftalg         112
           getden1          0
           getden2          1
           getden3          1
           getwfk1          0
           getwfk2          0
           getwfk3          1
           iatsph3       1    9   18   19
             iscf1         17
             iscf2         -2
             iscf3         -3
           istwfk2       7    0    0    0    0    0    0    0    0    0
                         4    0    0    0    0    0    0    0    0    0
                         0    0    2    0    0    0    0    0    0    0
                         0    0    0    0    0    0    0    0    0    0
                         9    0    0    0    0    0    0    0    8    0
              ixc     -101130
           jdtset        1    2    3
              kpt1     6.25000000E-02  6.25000000E-02  5.00000000E-01
                       1.87500000E-01  6.25000000E-02  5.00000000E-01
                       3.12500000E-01  6.25000000E-02  5.00000000E-01
                       4.37500000E-01  6.25000000E-02  5.00000000E-01
                       1.87500000E-01  1.87500000E-01  5.00000000E-01
                       3.12500000E-01  1.87500000E-01  5.00000000E-01
                       4.37500000E-01  1.87500000E-01  5.00000000E-01
                       3.12500000E-01  3.12500000E-01  5.00000000E-01
                       4.37500000E-01  3.12500000E-01  5.00000000E-01
                       4.37500000E-01  4.37500000E-01  5.00000000E-01
              kpt2     5.00000000E-01  5.00000000E-01  0.00000000E+00
                       4.50000000E-01  4.50000000E-01  5.00000000E-02
                       4.00000000E-01  4.00000000E-01  1.00000000E-01
                       3.50000000E-01  3.50000000E-01  1.50000000E-01
                       3.00000000E-01  3.00000000E-01  2.00000000E-01
                       2.50000000E-01  2.50000000E-01  2.50000000E-01
                       2.00000000E-01  2.00000000E-01  3.00000000E-01
                       1.50000000E-01  1.50000000E-01  3.50000000E-01
                       1.00000000E-01  1.00000000E-01  4.00000000E-01
                       5.00000000E-02  5.00000000E-02  4.50000000E-01
                       0.00000000E+00  0.00000000E+00  5.00000000E-01
                       0.00000000E+00  0.00000000E+00  4.58333333E-01
                       0.00000000E+00  0.00000000E+00  4.16666667E-01
                       0.00000000E+00  0.00000000E+00  3.75000000E-01
                       0.00000000E+00  0.00000000E+00  3.33333333E-01
                       0.00000000E+00  0.00000000E+00  2.91666667E-01
                       0.00000000E+00  0.00000000E+00  2.50000000E-01
                       0.00000000E+00  0.00000000E+00  2.08333333E-01
                       0.00000000E+00  0.00000000E+00  1.66666667E-01
                       0.00000000E+00  0.00000000E+00  1.25000000E-01
                       0.00000000E+00  0.00000000E+00  8.33333333E-02
                       0.00000000E+00  0.00000000E+00  4.16666667E-02
                       0.00000000E+00  0.00000000E+00  0.00000000E+00
                       2.77777778E-02  2.77777778E-02  2.77777778E-02
                       5.55555556E-02  5.55555556E-02  5.55555556E-02
                       8.33333333E-02  8.33333333E-02  8.33333333E-02
                       1.11111111E-01  1.11111111E-01  1.11111111E-01
                       1.38888889E-01  1.38888889E-01  1.38888889E-01
                       1.66666667E-01  1.66666667E-01  1.66666667E-01
                       1.94444444E-01  1.94444444E-01  1.94444444E-01
                       2.22222222E-01  2.22222222E-01  2.22222222E-01
                       2.50000000E-01  2.50000000E-01  2.50000000E-01
                       2.77777778E-01  2.77777778E-01  2.77777778E-01
                       3.05555556E-01  3.05555556E-01  3.05555556E-01
                       3.33333333E-01  3.33333333E-01  3.33333333E-01
                       3.61111111E-01  3.61111111E-01  3.61111111E-01
                       3.88888889E-01  3.88888889E-01  3.88888889E-01
                       4.16666667E-01  4.16666667E-01  4.16666667E-01
                       4.44444444E-01  4.44444444E-01  4.44444444E-01
                       4.72222222E-01  4.72222222E-01  4.72222222E-01
                       5.00000000E-01  5.00000000E-01  5.00000000E-01
                       4.37500000E-01  5.00000000E-01  5.00000000E-01
                       3.75000000E-01  5.00000000E-01  5.00000000E-01
                       3.12500000E-01  5.00000000E-01  5.00000000E-01
                       2.50000000E-01  5.00000000E-01  5.00000000E-01
                       1.87500000E-01  5.00000000E-01  5.00000000E-01
                       1.25000000E-01  5.00000000E-01  5.00000000E-01
                       6.25000000E-02  5.00000000E-01  5.00000000E-01
                       0.00000000E+00  5.00000000E-01  5.00000000E-01
                       0.00000000E+00  5.00000000E-01  4.37500000E-01
              kpt3     6.25000000E-02  6.25000000E-02  5.00000000E-01
                       1.87500000E-01  6.25000000E-02  5.00000000E-01
                       3.12500000E-01  6.25000000E-02  5.00000000E-01
                       4.37500000E-01  6.25000000E-02  5.00000000E-01
                       1.87500000E-01  1.87500000E-01  5.00000000E-01
                       3.12500000E-01  1.87500000E-01  5.00000000E-01
                       4.37500000E-01  1.87500000E-01  5.00000000E-01
                       3.12500000E-01  3.12500000E-01  5.00000000E-01
                       4.37500000E-01  3.12500000E-01  5.00000000E-01
                       4.37500000E-01  4.37500000E-01  5.00000000E-01
                       outvar_i_n : Printing only first  50 k-points.
           kptopt1          1
           kptopt2         -5
           kptopt3          1
         kptrlatt        8    0    0      0    8    0      0    0    1
          kptrlen1     6.20994534E+01
          kptrlen2     3.00000000E+01
          kptrlen3     6.20994534E+01
P           mkmem1          2
P           mkmem2         10
P           mkmem3          2
            natom          20
           natsph3       4
            nband1        165
            nband2        165
            nband3        165
           nbdbuf1          0
           nbdbuf2          2
           nbdbuf3          2
           ndtset           3
            ngfft          36      36     288
             nkpt1         10
             nkpt2         57
             nkpt3         10
            nstep1        400
            nstep2        300
            nstep3        300
             nsym           8
           ntypat           3
              occ      2.000000  2.000000  2.000000  2.000000  2.000000  2.000000
                       2.000000  2.000000  2.000000  2.000000  2.000000  2.000000
                       2.000000  2.000000  2.000000  2.000000  2.000000  2.000000
                       2.000000  2.000000  2.000000  2.000000  2.000000  2.000000
                       2.000000  2.000000  2.000000  2.000000  2.000000  2.000000
                       2.000000  2.000000  2.000000  2.000000  2.000000  2.000000
                       2.000000  2.000000  2.000000  2.000000  2.000000  2.000000
                       2.000000  2.000000  2.000000  2.000000  2.000000  2.000000
                       2.000000  2.000000  2.000000  2.000000  2.000000  2.000000
                       2.000000  2.000000  2.000000  2.000000  2.000000  2.000000
                       2.000000  2.000000  2.000000  2.000000  2.000000  2.000000
                       2.000000  2.000000  2.000000  2.000000  2.000000  2.000000
                       2.000000  2.000000  2.000000  2.000000  2.000000  2.000000
                       2.000000  2.000000  2.000000  2.000000  2.000000  2.000000
                       2.000000  2.000000  2.000000  2.000000  2.000000  2.000000
                       2.000000  2.000000  2.000000  2.000000  2.000000  2.000000
                       2.000000  2.000000  2.000000  2.000000  2.000000  2.000000
                       2.000000  2.000000  2.000000  2.000000  2.000000  2.000000
                       2.000000  2.000000  2.000000  2.000000  2.000000  2.000000
                       2.000000  2.000000  2.000000  2.000000  2.000000  2.000000
                       2.000000  2.000000  2.000000  2.000000  2.000000  2.000000
                       2.000000  2.000000  2.000000  2.000000  2.000000  2.000000
                       2.000000  2.000000  2.000000  2.000000  2.000000  2.000000
                       2.000000  2.000000  2.000000  2.000000  2.000000  2.000000
                       2.000000  2.000000  2.000000  2.000000  2.000000  2.000000
                       2.000000  2.000000  2.000000  2.000000  2.000000  2.000000
                       0.000000  0.000000  0.000000  0.000000  0.000000  0.000000
                       0.000000  0.000000  0.000000
           prtcif           1
           prtdos1          0
           prtdos2          0
           prtdos3          3
            rprim      1.0000000000E+00  0.0000000000E+00  0.0000000000E+00
                       0.0000000000E+00  1.0000000000E+00  0.0000000000E+00
                       1.0000000000E-15  1.0000000000E-15  8.3913010243E+00
           shiftk      5.00000000E-01  5.00000000E-01  5.00000000E-01
          spgroup          99
           symrel      1  0  0   0  1  0   0  0  1       1  0  0   0 -1  0   0  0  1
                      -1  0  0   0 -1  0   0  0  1      -1  0  0   0  1  0   0  0  1
                       0  1  0   1  0  0   0  0  1       0  1  0  -1  0  0   0  0  1
                       0 -1  0  -1  0  0   0  0  1       0 -1  0   1  0  0   0  0  1
            tnons      0.0000000  0.0000000  0.0000000     0.0000000 -0.0000000  0.0000000
                      -0.0000000 -0.0000000  0.0000000    -0.0000000  0.0000000  0.0000000
                       0.5000000  0.5000000  0.0000000     0.5000000  0.5000000  0.0000000
                       0.5000000  0.5000000  0.0000000     0.5000000  0.5000000  0.0000000
           tolwfr      1.00000000E-20
            typat      1  1  1  1  1  1  1  1  2  2  2  2  2  2  2  2  2  2  3  3
           vdw_xc           5
              wtk1       0.06250    0.12500    0.12500    0.12500    0.06250    0.12500
                         0.12500    0.06250    0.12500    0.06250
              wtk2       1.00000    1.00000    1.00000    1.00000    1.00000    1.00000
                         1.00000    1.00000    1.00000    1.00000    1.00000    1.00000
                         1.00000    1.00000    1.00000    1.00000    1.00000    1.00000
                         1.00000    1.00000    1.00000    1.00000    1.00000    1.00000
                         1.00000    1.00000    1.00000    1.00000    1.00000    1.00000
                         1.00000    1.00000    1.00000    1.00000    1.00000    1.00000
                         1.00000    1.00000    1.00000    1.00000    1.00000    1.00000
                         1.00000    1.00000    1.00000    1.00000    1.00000    1.00000
                         1.00000    1.00000
              wtk3       0.06250    0.12500    0.12500    0.12500    0.06250    0.12500
                         0.12500    0.06250    0.12500    0.06250
                       outvars : Printing only first  50 k-points.
           xangst      2.0538509643E+00  5.5610890249E-16  4.6664772030E+00
                       8.8378439303E-16  2.0538509643E+00  7.4161008824E+00
                       2.0538509643E+00  1.2038893889E-15  1.0102198262E+01
                       1.5315648795E-15  2.0538509643E+00  1.2851821942E+01
                       2.0538509643E+00  1.8516698753E-15  1.5537919322E+01
                       2.1793453659E-15  2.0538509643E+00  1.8287543001E+01
                       2.0538509643E+00  2.4994503618E-15  2.0973640381E+01
                       2.8271299600E-15  2.0538509643E+00  2.3723298529E+01
                       5.5989209596E-16  2.0538509643E+00  4.6982231183E+00
                       2.0538509643E+00  8.7999709185E-16  7.3843204982E+00
                       1.2076766901E-15  2.0538509643E+00  1.0133978647E+01
                       2.0538509643E+00  1.5277816860E-15  1.2820076026E+01
                       1.8554571765E-15  2.0538509643E+00  1.5569699706E+01
                       2.0538509643E+00  2.1755621724E-15  1.8255797086E+01
                       2.5032376629E-15  2.0538509643E+00  2.1005420765E+01
                       2.0538509643E+00  2.8233426588E-15  2.3691518145E+01
                       2.0538509643E+00  3.1952704222E-15  2.6812475967E+01
                       3.5515930260E-15  2.0538509643E+00  2.9802486197E+01
                       2.0538509643E+00  2.0538509643E+00  2.8307498317E+01
                       3.3734337780E-15  3.3734337780E-15  2.8307498317E+01
            xcart      3.8812158402E+00  1.0508935258E-15  8.8183639191E+00
                       1.6701104633E-15  3.8812158402E+00  1.4014399642E+01
                       3.8812158402E+00  2.2750212393E-15  1.9090388056E+01
                       2.8942381769E-15  3.8812158402E+00  2.4286423778E+01
                       3.8812158402E+00  3.4991489529E-15  2.9362412193E+01
                       4.1183658905E-15  3.8812158402E+00  3.4558447915E+01
                       3.8812158402E+00  4.7232766665E-15  3.9634436329E+01
                       5.3425013665E-15  3.8812158402E+00  4.4830537189E+01
                       1.0580427253E-15  3.8812158402E+00  8.8783550048E+00
                       3.8812158402E+00  1.6629535013E-15  1.3954343419E+01
                       2.2821782013E-15  3.8812158402E+00  1.9150444278E+01
                       3.8812158402E+00  2.8870889773E-15  2.4226432693E+01
                       3.5063059149E-15  3.8812158402E+00  2.9422468415E+01
                       3.8812158402E+00  4.1112166909E-15  3.4498456829E+01
                       4.7304336285E-15  3.8812158402E+00  3.9694492552E+01
                       3.8812158402E+00  5.3353444045E-15  4.4770480966E+01
                       3.8812158402E+00  6.0381860185E-15  5.0668236522E+01
                       6.7115381547E-15  3.8812158402E+00  5.6318536992E+01
                       3.8812158402E+00  3.8812158402E+00  5.3493419325E+01
                       6.3748659678E-15  6.3748659678E-15  5.3493419325E+01
             xred      5.0000000000E-01  2.5451086397E-32  1.3538200000E-01
                      -1.2553174550E-32  5.0000000000E-01  2.1515300000E-01
                       5.0000000000E-01 -2.5603026039E-32  2.9308100000E-01
                      -4.1574609594E-32  5.0000000000E-01  3.7285200000E-01
                       5.0000000000E-01 -5.4624461082E-32  4.5078000000E-01
                      -1.1466139942E-31  5.0000000000E-01  5.3055100000E-01
                       5.0000000000E-01  2.0200168819E-32  6.0847900000E-01
                      -7.4331858357E-32  5.0000000000E-01  6.8825100000E-01
                      -5.4468158982E-33  5.0000000000E-01  1.3630300000E-01
                       5.0000000000E-01 -1.8496667387E-32  2.1423100000E-01
                      -4.6930662386E-32  5.0000000000E-01  2.9400300000E-01
                       5.0000000000E-01 -1.0676707299E-32  3.7193100000E-01
                       2.7893967515E-32  5.0000000000E-01  4.5170200000E-01
                       5.0000000000E-01  9.6056642341E-33  5.2963000000E-01
                      -5.0431274105E-32  5.0000000000E-01  6.0940100000E-01
                       5.0000000000E-01 -1.1278493217E-31  6.8732900000E-01
                       5.0000000000E-01 -9.3691669479E-32  7.7787300000E-01
                      -1.0526112392E-31  5.0000000000E-01  8.6461800000E-01
                       5.0000000000E-01  5.0000000000E-01  8.2124600000E-01
                      -6.7420134542E-32 -6.7420134542E-32  8.2124600000E-01
            znucl       50.00000   34.00000   30.00000

================================================================================

 chkinp: Checking input parameters for consistency, jdtset=   1.

 chkinp: Checking input parameters for consistency, jdtset=   2.

 chkinp: Checking input parameters for consistency, jdtset=   3.
 DATA TYPE INFORMATION: 
 REAL:      Data type name: REAL(DP) 
            Kind value:      8
            Precision:      15
            Smallest nonnegligible quantity relative to 1: 0.22204460E-015
            Smallest positive number:                      0.22250739E-307
            Largest representable number:                  0.17976931E+309
 INTEGER:   Data type name: INTEGER(default) 
            Kind value: 4
            Bit size:   32
            Largest representable number: 2147483647
 LOGICAL:   Data type name: LOGICAL 
            Kind value: 4
 CHARACTER: Data type name: CHARACTER             Kind value: 1

  ==== OpenMP parallelism is OFF ====
 
  ==== Using MPI-2 specifications ==== 
  MPI-IO support is ON
  xmpi_tag_ub ................   2147483647
  xmpi_bsize_ch ..............            1
  xmpi_bsize_int .............            4
  xmpi_bsize_sp ..............            4
  xmpi_bsize_dp ..............            8
  xmpi_bsize_spc .............            8
  xmpi_bsize_dpc .............           16
  xmpio_bsize_frm ............            4
  xmpi_address_kind ..........            8
  xmpi_offset_kind ...........            8
  MPI_WTICK ..................    1.0000000000000001E-009

================================================================================
== DATASET  1 ==================================================================
-   mpi_nproc: 6, omp_nthreads: -1 (-1 if OMP is not activated)


--- !COMMENT
src_file: m_xgScalapack.F90
src_line: 236
message: |
    xgScalapack in auto mode
...


 getdim_nloc : deduce lmnmax  =  18, lnmax  =   6,
                      lmnmaxso=  18, lnmaxso=   6.
 Perdew, Burke & Ernzerhof
 J. P. Perdew, K. Burke, and M. Ernzerhof, Phys. Rev. Lett. 77, 3865 (1996)
 J. P. Perdew, K. Burke, and M. Ernzerhof, Phys. Rev. Lett. 78, 1396 (1997)
 Perdew, Burke & Ernzerhof
 J. P. Perdew, K. Burke, and M. Ernzerhof, Phys. Rev. Lett. 77, 3865 (1996)
 J. P. Perdew, K. Burke, and M. Ernzerhof, Phys. Rev. Lett. 78, 1396 (1997)

 Unit cell volume ucvol=  3.9248465E+03 bohr^3
 Angles (23,13,12)=  9.00000000E+01  9.00000000E+01  9.00000000E+01 degrees

 getcut: wavevector=  0.0000  0.0000  0.0000  ngfft=  36  36 288
         ecut(hartree)=     22.500   => boxcut(ratio)=   2.07066
- pspini: atom type   1  psp file is ../../../Psps_for_tests/ATOMICDATA_NC/Sn.psp8
- pspatm: opening atomic psp file    ../../../Psps_for_tests/ATOMICDATA_NC/Sn.psp8
- Sn    ONCVPSP  r_core=  2.27  2.62  1.86
- 50.00000  14.00000    150810                znucl, zion, pspdat
    8   11    2    4       600   0.00000      pspcod,pspxc,lmax,lloc,mmax,r2well

--- !WARNING
src_file: m_pspini.F90
src_line: 1036
message: |
    Pseudopotential file pspxc: 11, not equal to input ixc: -101130.
    These parameters must agree to get the same xc in ABINIT code as in psp construction.
    Action: check psp design or input file.
    Assume experienced user. Execution will continue.
...

    5.99000000000000    6.50000000000000    0.00000000000000   rchrg,fchrg,qchrg
     nproj     2     2     2
     extension_switch     1
  valence charge integrates to:    13.912521222389802     
  pspatm : epsatm=   32.65190642
         --- l  ekb(1:nproj) -->
             0    5.462393    0.682281
             1    4.443814    0.825686
             2   -5.382195   -1.704077
 pspatm: atomic psp has been read  and splines computed

- pspini: atom type   2  psp file is ../../../Psps_for_tests/ATOMICDATA_NC/Se.psp8
- pspatm: opening atomic psp file    ../../../Psps_for_tests/ATOMICDATA_NC/Se.psp8
- Se    ONCVPSP  r_core=  1.82  1.50  1.91
- 34.00000  16.00000    150729                znucl, zion, pspdat
    8   11    2    4       600   0.00000      pspcod,pspxc,lmax,lloc,mmax,r2well

--- !WARNING
src_file: m_pspini.F90
src_line: 1036
message: |
    Pseudopotential file pspxc: 11, not equal to input ixc: -101130.
    These parameters must agree to get the same xc in ABINIT code as in psp construction.
    Action: check psp design or input file.
    Assume experienced user. Execution will continue.
...

    5.99000000000000    5.00000000000000    0.00000000000000   rchrg,fchrg,qchrg
     nproj     2     2     2
     extension_switch     1
  valence charge integrates to:    15.981819523532332     
  pspatm : epsatm=   29.53325930
         --- l  ekb(1:nproj) -->
             0    8.612261    0.939919
             1    6.984962    1.281898
             2   -9.322521   -3.856218
 pspatm: atomic psp has been read  and splines computed

- pspini: atom type   3  psp file is ../../../Psps_for_tests/ATOMICDATA_NC/Zn.psp8
- pspatm: opening atomic psp file    ../../../Psps_for_tests/ATOMICDATA_NC/Zn.psp8
- Zn    ONCVPSP  r_core=  1.36  1.66  1.85
- 30.00000  20.00000    161102                znucl, zion, pspdat
    8   11    2    4       600   0.00000      pspcod,pspxc,lmax,lloc,mmax,r2well

--- !WARNING
src_file: m_pspini.F90
src_line: 1036
message: |
    Pseudopotential file pspxc: 11, not equal to input ixc: -101130.
    These parameters must agree to get the same xc in ABINIT code as in psp construction.
    Action: check psp design or input file.
    Assume experienced user. Execution will continue.
...

    5.99000000000000    2.50000000000000    0.00000000000000   rchrg,fchrg,qchrg
     nproj     2     2     2
     extension_switch     1
  valence charge integrates to:    19.977025053306086     
  pspatm : epsatm=   26.67245340
         --- l  ekb(1:nproj) -->
             0    2.404235   -1.533451
             1   -4.677427   -1.530630
             2   -7.000316   -2.622858
 pspatm: atomic psp has been read  and splines computed

   1.90286538E+05                                ecore*ucvol(ha*bohr**3)
 ==== Info on pseudopotentials ====
  Norm-conserving pseudopotentials
  Number of pseudopotentials ..    3
  Number of types of atoms   ..    3
  Scalar calculation (no spin-orbit term)
  Nonlocal part applied using Legendre polynomials
  Max number of non-local projectors over l and type   2
  Highest angular momentum +1 .......   3
  Max number of (l,n)   components ..   6
  Max number of (l,m,n) components ..   6

 Pseudo-Core Charge Info: 
   Number of radial points for pseudo-core charge .. 2501
   XC core-correction treatment (optnlxccc) ........    1
   Radius for pseudo-core charge for each type ..... 

  - Atom type    1 has pseudo-core radius ..  5.9900
  - Atom type    2 has pseudo-core radius ..  5.9900
  - Atom type    3 has pseudo-core radius ..  5.9900

 Info on the Q-grid used for form factors in spline form: 
   Number of q-points for radial functions ffspl ..  13909
   Number of q-points for vlspl ...................  13909
   vloc is computed in Reciprocal Space
   model core charge treated in real-space

  XC functional for type 1 is 11
  Pseudo valence available: yes
  XC functional for type 2 is 11
  Pseudo valence available: yes
  XC functional for type 3 is 11
  Pseudo valence available: yes

 wfconv:   165 bands initialized randomly with npw= 20066, for ikpt=     1
 wfconv:   165 bands initialized randomly with npw= 20020, for ikpt=     2
_setup2: Arith. and geom. avg. npw (full set) are   20005.250   20005.239
 initro: for itypat=  1, take pseudo charge density from pp file
 initro: for itypat=  2, take pseudo charge density from pp file
 initro: for itypat=  3, take pseudo charge density from pp file

================================================================================

 getcut: wavevector=  0.0000  0.0000  0.0000  ngfft=  36  36 288
         ecut(hartree)=     22.500   => boxcut(ratio)=   2.07066

 1/G**2 cut-off applied in the following step : cutoff-mode = CRYSTAL

  --------------------------------------------------------------
  Van der Waals DFT-D2 semi-empirical dispersion potential added
      with following parameters:
      Specie  C6 (J.nm^6.mol^-1)  R0 (Ang)
      ------------------------------------
         Sn           38.71         1.804
         Se           12.64         1.771
         Zn           10.80         1.562

      Scaling factor   =   0.75
      Damping parameter=  20.00
      Cut-off radius   = 130.92 bohr

      Number of pairs contributing =   500664
      DFT-D2 energy contribution   =   -2.58259E-01 Ha
  --------------------------------------------------------------


 1/G**2 cut-off applied in the following step : cutoff-mode = CRYSTAL

 1/G**2 cut-off applied in the following step : cutoff-mode = CRYSTAL

--- !WARNING
src_file: m_drivexc.F90
src_line: 707
message: |
    Density went too small (lower than xc_denpos) at 17775 points
    and was set to xc_denpos =   1.00E-14. Lowest was  -0.72E-03.
    Likely due to too low boxcut or too low ecut for pseudopotential core charge.
...


 ITER STEP NUMBER     1
 vtorho: nnsclo_now = 2, note that nnsclo, dbl_nnsclo, istep= 0 0 1
 Total charge density [el/Bohr^3]
      Maximum=    3.2592E+00  at reduced coord.    0.0000    0.9722    0.8160
      Minimum=    2.4571E-03  at reduced coord.    0.1111    0.0000    0.9653
   Integrated=    3.1200E+02
 ETOT  1  -2223.4223039126    -2.223E+03 7.760E-01 1.938E+03
 scprqt: <Vxc>= -3.3055055E-01 hartree

 Simple mixing update:
  residual square of the potential:    1278.6453673604349

 1/G**2 cut-off applied in the following step : cutoff-mode = CRYSTAL

--- !WARNING
src_file: m_drivexc.F90
src_line: 707
message: |
    Density went too small (lower than xc_denpos) at 1234 points
    and was set to xc_denpos =   1.00E-14. Lowest was  -0.40E-04.
    Likely due to too low boxcut or too low ecut for pseudopotential core charge.
...

 scfcv_core: previous iteration took 03:52 [minutes]

 ITER STEP NUMBER     2
 vtorho: nnsclo_now = 2, note that nnsclo, dbl_nnsclo, istep= 0 0 2
 Total charge density [el/Bohr^3]
      Maximum=    6.0380E+00  at reduced coord.    0.9722    0.9444    0.8194
      Minimum=    3.0505E-04  at reduced coord.    0.0000    0.0000    0.2465
   Integrated=    3.1200E+02
 ETOT  2  -2438.7516776596    -2.153E+02 4.034E-01 1.009E+04
 scprqt: <Vxc>= -3.4579208E-01 hartree

 Pulay update with  1 previous iterations:
 mixing of old trial potential: alpha(m:m-4)=  0.327      0.673

--- !WARNING
src_file: m_drivexc.F90
src_line: 707
message: |
    Density went too small (lower than xc_denpos) at 28104 points
    and was set to xc_denpos =   1.00E-14. Lowest was  -0.89E-03.
    Likely due to too low boxcut or too low ecut for pseudopotential core charge.
...

 scfcv_core: previous iteration took 03:50 [minutes]

 ITER STEP NUMBER     3
 vtorho: nnsclo_now = 1, note that nnsclo, dbl_nnsclo, istep= 0 0 3
 Total charge density [el/Bohr^3]
      Maximum=    2.4517E+00  at reduced coord.    0.5000    0.5000    0.8229
      Minimum=    2.3366E-03  at reduced coord.    0.1667    0.2500    0.0243
   Integrated=    3.1200E+02
 ETOT  3  -2316.7332679903     1.220E+02 2.331E+01 5.193E+03
 scprqt: <Vxc>= -3.4893082E-01 hartree

 Pulay update with  2 previous iterations:
 mixing of old trial potential: alpha(m:m-4)=  0.709E-01  0.330      0.599

--- !WARNING
src_file: m_drivexc.F90
src_line: 707
message: |
    Density went too small (lower than xc_denpos) at 27864 points
    and was set to xc_denpos =   1.00E-14. Lowest was  -0.88E-03.
    Likely due to too low boxcut or too low ecut for pseudopotential core charge.
...

 scfcv_core: previous iteration took 01:56 [minutes]

 ITER STEP NUMBER     4
 vtorho: nnsclo_now = 1, note that nnsclo, dbl_nnsclo, istep= 0 0 4
 Total charge density [el/Bohr^3]
      Maximum=    2.5059E+00  at reduced coord.    0.9722    0.5556    0.3021
      Minimum=    1.3869E-04  at reduced coord.    0.3611    0.0000    0.9375
   Integrated=    3.1200E+02
 ETOT  4  -2614.7426670596    -2.980E+02 4.124E+00 1.049E+04
 scprqt: <Vxc>= -3.5265733E-01 hartree

 Pulay update with  3 previous iterations:
 mixing of old trial potential: alpha(m:m-4)=  0.438     -0.456      0.409      0.610

--- !WARNING
src_file: m_drivexc.F90
src_line: 707
message: |
    Density went too small (lower than xc_denpos) at 25508 points
    and was set to xc_denpos =   1.00E-14. Lowest was  -0.11E-02.
    Likely due to too low boxcut or too low ecut for pseudopotential core charge.
...

 scfcv_core: previous iteration took 01:56 [minutes]

 ITER STEP NUMBER     5
 vtorho: nnsclo_now = 1, note that nnsclo, dbl_nnsclo, istep= 0 0 5
 Total charge density [el/Bohr^3]
      Maximum=    3.0423E+00  at reduced coord.    0.5000    0.5278    0.8160
      Minimum=    5.2049E-05  at reduced coord.    0.0000    0.5000    0.9688
   Integrated=    3.1200E+02
 ETOT  5  -2347.2327362208     2.675E+02 1.415E+00 5.211E+03
 scprqt: <Vxc>= -3.5293850E-01 hartree

 Pulay update with  4 previous iterations:
 mixing of old trial potential: alpha(m:m-4)=  0.281      0.229     -0.459      0.355      0.593

--- !WARNING
src_file: m_drivexc.F90
src_line: 707
message: |
    Density went too small (lower than xc_denpos) at 24210 points
    and was set to xc_denpos =   1.00E-14. Lowest was  -0.10E-02.
    Likely due to too low boxcut or too low ecut for pseudopotential core charge.
...

 scfcv_core: previous iteration took 01:56 [minutes]

 ITER STEP NUMBER     6
 vtorho: nnsclo_now = 1, note that nnsclo, dbl_nnsclo, istep= 0 0 6
 Total charge density [el/Bohr^3]
      Maximum=    3.3736E+00  at reduced coord.    0.5000    0.5278    0.8160
      Minimum=    5.6505E-05  at reduced coord.    0.4167    0.0278    0.9861
   Integrated=    3.1200E+02
 ETOT  6  -2256.5630303866     9.067E+01 8.655E-01 3.543E+03
 scprqt: <Vxc>= -3.5155665E-01 hartree

 Pulay update with  5 previous iterations:
 mixing of old trial potential: alpha(m:m-4)=  0.530     -0.343      0.432     -0.475      0.382

--- !WARNING
src_file: m_drivexc.F90
src_line: 707
message: |
    Density went too small (lower than xc_denpos) at 24654 points
    and was set to xc_denpos =   1.00E-14. Lowest was  -0.10E-02.
    Likely due to too low boxcut or too low ecut for pseudopotential core charge.
...

 scfcv_core: previous iteration took 01:56 [minutes]

 ITER STEP NUMBER     7
 vtorho: nnsclo_now = 1, note that nnsclo, dbl_nnsclo, istep= 0 0 7
 Total charge density [el/Bohr^3]
      Maximum=    3.4112E+00  at reduced coord.    0.5000    0.5278    0.8160
      Minimum=    9.2011E-05  at reduced coord.    0.5000    0.0000    0.0000
   Integrated=    3.1200E+02
 ETOT  7  -2260.9188576139    -4.356E+00 2.155E+00 2.463E+03
 scprqt: <Vxc>= -3.5257118E-01 hartree

 Pulay update with  6 previous iterations:
 mixing of old trial potential: alpha(m:m-4)=  0.411      0.183     -0.249      0.419     -0.499

--- !WARNING
src_file: m_drivexc.F90
src_line: 707
message: |
    Density went too small (lower than xc_denpos) at 22929 points
    and was set to xc_denpos =   1.00E-14. Lowest was  -0.92E-03.
    Likely due to too low boxcut or too low ecut for pseudopotential core charge.
...

 scfcv_core: previous iteration took 01:55 [minutes]

 ITER STEP NUMBER     8
 vtorho: nnsclo_now = 1, note that nnsclo, dbl_nnsclo, istep= 0 0 8
 Total charge density [el/Bohr^3]
      Maximum=    3.4612E+00  at reduced coord.    0.0000    0.9722    0.8264
      Minimum=    2.0416E-04  at reduced coord.    0.0000    0.2222    0.9479
   Integrated=    3.1200E+02
 ETOT  8  -2257.1333197818     3.786E+00 8.043E+00 3.855E+03
 scprqt: <Vxc>= -3.5564560E-01 hartree

 Pulay update with  7 previous iterations:
 mixing of old trial potential: alpha(m:m-4)=  0.170      0.381      0.181     -0.194      0.414

--- !WARNING
src_file: m_drivexc.F90
src_line: 707
message: |
    Density went too small (lower than xc_denpos) at 26861 points
    and was set to xc_denpos =   1.00E-14. Lowest was  -0.97E-03.
    Likely due to too low boxcut or too low ecut for pseudopotential core charge.
...

 scfcv_core: previous iteration took 01:56 [minutes]

 ITER STEP NUMBER     9
 vtorho: nnsclo_now = 1, note that nnsclo, dbl_nnsclo, istep= 0 0 9
 Total charge density [el/Bohr^3]
      Maximum=    4.2565E+00  at reduced coord.    0.9722    0.9722    0.8160
      Minimum=    4.7625E-04  at reduced coord.    0.5000    0.0000    0.9479
   Integrated=    3.1200E+02
 ETOT  9  -2223.5858445309     3.355E+01 4.691E+00 2.012E+03
 scprqt: <Vxc>= -3.5697085E-01 hartree

 Pulay update with  7 previous iterations:
 mixing of old trial potential: alpha(m:m-4)=  0.386      0.955E-01  0.410      0.388     -0.376

--- !WARNING
src_file: m_drivexc.F90
src_line: 707
message: |
    Density went too small (lower than xc_denpos) at 23913 points
    and was set to xc_denpos =   1.00E-14. Lowest was  -0.90E-03.
    Likely due to too low boxcut or too low ecut for pseudopotential core charge.
...

 scfcv_core: previous iteration took 01:56 [minutes]

 ITER STEP NUMBER    10
 vtorho: nnsclo_now = 1, note that nnsclo, dbl_nnsclo, istep= 0 0 10
 Total charge density [el/Bohr^3]
      Maximum=    5.1569E+00  at reduced coord.    0.9722    0.9444    0.8194
      Minimum=    4.2175E-04  at reduced coord.    0.0000    0.0000    0.4826
   Integrated=    3.1200E+02
 ETOT 10  -2366.3594200008    -1.428E+02 1.518E+00 4.606E+03
 scprqt: <Vxc>= -3.6077826E-01 hartree

 Pulay update with  7 previous iterations:
 mixing of old trial potential: alpha(m:m-4)=  0.336      0.187      0.665E-01  0.340      0.406

--- !WARNING
src_file: m_drivexc.F90
src_line: 707
message: |
    Density went too small (lower than xc_denpos) at 24087 points
    and was set to xc_denpos =   1.00E-14. Lowest was  -0.77E-03.
    Likely due to too low boxcut or too low ecut for pseudopotential core charge.
...

 scfcv_core: previous iteration took 01:56 [minutes]

 ITER STEP NUMBER    11
 vtorho: nnsclo_now = 1, note that nnsclo, dbl_nnsclo, istep= 0 0 11
 Total charge density [el/Bohr^3]
      Maximum=    5.1757E+00  at reduced coord.    0.9722    0.9444    0.8194
      Minimum=    1.7426E-04  at reduced coord.    0.0000    0.0000    0.4063
   Integrated=    3.1200E+02
 ETOT 11  -2303.0813302624     6.328E+01 6.883E-01 3.412E+03
 scprqt: <Vxc>= -3.6107945E-01 hartree

 Pulay update with  7 previous iterations:
 mixing of old trial potential: alpha(m:m-4)=  0.500     -0.600E-01  0.754E-01  0.357E-01  0.157

--- !WARNING
src_file: m_drivexc.F90
src_line: 707
message: |
    Density went too small (lower than xc_denpos) at 21914 points
    and was set to xc_denpos =   1.00E-14. Lowest was  -0.42E-03.
    Likely due to too low boxcut or too low ecut for pseudopotential core charge.
...

 scfcv_core: previous iteration took 01:56 [minutes]

 ITER STEP NUMBER    12
 vtorho: nnsclo_now = 1, note that nnsclo, dbl_nnsclo, istep= 0 0 12
 Total charge density [el/Bohr^3]
      Maximum=    4.4117E+00  at reduced coord.    0.5000    0.5000    0.8299
      Minimum=    4.6971E-04  at reduced coord.    0.0000    0.5000    0.0035
   Integrated=    3.1200E+02
 ETOT 12  -2238.2535486829     6.483E+01 2.141E+00 6.415E+02
 scprqt: <Vxc>= -3.5748470E-01 hartree

 Pulay update with  7 previous iterations:
 mixing of old trial potential: alpha(m:m-4)=  0.335      0.162      0.669E-01  0.386E-01  0.253E-01

--- !WARNING
src_file: m_drivexc.F90
src_line: 707
message: |
    Density went too small (lower than xc_denpos) at 19829 points
    and was set to xc_denpos =   1.00E-14. Lowest was  -0.35E-03.
    Likely due to too low boxcut or too low ecut for pseudopotential core charge.
...

 scfcv_core: previous iteration took 01:55 [minutes]

 ITER STEP NUMBER    13
 vtorho: nnsclo_now = 1, note that nnsclo, dbl_nnsclo, istep= 0 0 13
 Total charge density [el/Bohr^3]
      Maximum=    4.7420E+00  at reduced coord.    0.5000    0.5000    0.8125
      Minimum=    1.1743E-04  at reduced coord.    0.4444    0.0556    0.0069
   Integrated=    3.1200E+02
 ETOT 13  -2267.4521880662    -2.920E+01 9.779E-01 1.289E+03
 scprqt: <Vxc>= -3.5746553E-01 hartree

 Pulay update with  7 previous iterations:
 mixing of old trial potential: alpha(m:m-4)=  0.133      0.238      0.652E-01  0.128      0.324E-01

--- !WARNING
src_file: m_drivexc.F90
src_line: 707
message: |
    Density went too small (lower than xc_denpos) at 19694 points
    and was set to xc_denpos =   1.00E-14. Lowest was  -0.34E-03.
    Likely due to too low boxcut or too low ecut for pseudopotential core charge.
...

 scfcv_core: previous iteration took 01:55 [minutes]

 ITER STEP NUMBER    14
 vtorho: nnsclo_now = 1, note that nnsclo, dbl_nnsclo, istep= 0 0 14
 Total charge density [el/Bohr^3]
      Maximum=    4.7960E+00  at reduced coord.    0.9444    0.9722    0.8194
      Minimum=    1.3845E-05  at reduced coord.    0.0000    0.5000    0.0035
   Integrated=    3.1200E+02
 ETOT 14  -2267.9009747331    -4.488E-01 8.427E-02 1.302E+03
 scprqt: <Vxc>= -3.5726899E-01 hartree

 Pulay update with  7 previous iterations:
 mixing of old trial potential: alpha(m:m-4)= -0.158      0.344      0.171     -0.142E-01  0.166

--- !WARNING
src_file: m_drivexc.F90
src_line: 707
message: |
    Density went too small (lower than xc_denpos) at 19876 points
    and was set to xc_denpos =   1.00E-14. Lowest was  -0.35E-03.
    Likely due to too low boxcut or too low ecut for pseudopotential core charge.
...

 scfcv_core: previous iteration took 01:55 [minutes]

 ITER STEP NUMBER    15
 vtorho: nnsclo_now = 1, note that nnsclo, dbl_nnsclo, istep= 0 0 15
 Total charge density [el/Bohr^3]
      Maximum=    4.7339E+00  at reduced coord.    0.0000    0.9444    0.8264
      Minimum=    1.8805E-04  at reduced coord.    0.5000    0.0000    0.9583
   Integrated=    3.1200E+02
 ETOT 15  -2316.7707662674    -4.887E+01 1.651E+00 2.191E+03
 scprqt: <Vxc>= -3.5889191E-01 hartree

 Pulay update with  7 previous iterations:
 mixing of old trial potential: alpha(m:m-4)= -0.206E-01 -0.397      0.408      0.686      0.641E-01

--- !WARNING
src_file: m_drivexc.F90
src_line: 707
message: |
    Density went too small (lower than xc_denpos) at 21144 points
    and was set to xc_denpos =   1.00E-14. Lowest was  -0.44E-03.
    Likely due to too low boxcut or too low ecut for pseudopotential core charge.
...

 scfcv_core: previous iteration took 01:54 [minutes]

 ITER STEP NUMBER    16
 vtorho: nnsclo_now = 1, note that nnsclo, dbl_nnsclo, istep= 0 0 16
 Total charge density [el/Bohr^3]
      Maximum=    4.8114E+00  at reduced coord.    0.9444    0.9722    0.8194
      Minimum=    9.3686E-05  at reduced coord.    0.5000    0.0000    0.9479
   Integrated=    3.1200E+02
 ETOT 16  -2245.6079231122     7.116E+01 1.480E+00 1.289E+03
 scprqt: <Vxc>= -3.5533912E-01 hartree

 Pulay update with  7 previous iterations:
 mixing of old trial potential: alpha(m:m-4)=  0.630     -0.308      -1.53       1.10      0.894

--- !WARNING
src_file: m_drivexc.F90
src_line: 707
message: |
    Density went too small (lower than xc_denpos) at 13654 points
    and was set to xc_denpos =   1.00E-14. Lowest was  -0.20E-03.
    Likely due to too low boxcut or too low ecut for pseudopotential core charge.
...

 scfcv_core: previous iteration took 01:54 [minutes]

 ITER STEP NUMBER    17
 vtorho: nnsclo_now = 1, note that nnsclo, dbl_nnsclo, istep= 0 0 17
 Total charge density [el/Bohr^3]
      Maximum=    3.7855E+00  at reduced coord.    0.0000    0.9444    0.8194
      Minimum=    5.6412E-04  at reduced coord.    0.5000    0.0000    0.9201
   Integrated=    3.1200E+02
 ETOT 17  -2554.3794965141    -3.088E+02 2.490E+01 6.207E+03
 scprqt: <Vxc>= -3.5544098E-01 hartree

 Pulay update with  7 previous iterations:
 mixing of old trial potential: alpha(m:m-4)=  0.204      0.533     -0.467      -1.14      0.822

--- !WARNING
src_file: m_drivexc.F90
src_line: 707
message: |
    Density went too small (lower than xc_denpos) at 18031 points
    and was set to xc_denpos =   1.00E-14. Lowest was  -0.46E-03.
    Likely due to too low boxcut or too low ecut for pseudopotential core charge.
...

 scfcv_core: previous iteration took 01:56 [minutes]

 ITER STEP NUMBER    18
 vtorho: nnsclo_now = 1, note that nnsclo, dbl_nnsclo, istep= 0 0 18
 Total charge density [el/Bohr^3]
      Maximum=    3.4924E+00  at reduced coord.    0.0000    0.9444    0.8229
      Minimum=    5.4962E-05  at reduced coord.    0.5000    0.0000    0.9271
   Integrated=    3.1200E+02
 ETOT 18  -2438.3023075402     1.161E+02 8.738E-01 6.275E+03
 scprqt: <Vxc>= -3.5992875E-01 hartree

 Pulay update with  7 previous iterations:
 mixing of old trial potential: alpha(m:m-4)=  0.311     -0.139E-01  0.555     -0.625     -0.496

--- !WARNING
src_file: m_drivexc.F90
src_line: 707
message: |
    Density went too small (lower than xc_denpos) at 9709 points
    and was set to xc_denpos =   1.00E-14. Lowest was  -0.11E-03.
    Likely due to too low boxcut or too low ecut for pseudopotential core charge.
...

 scfcv_core: previous iteration took 01:56 [minutes]

 ITER STEP NUMBER    19
 vtorho: nnsclo_now = 1, note that nnsclo, dbl_nnsclo, istep= 0 0 19
 Total charge density [el/Bohr^3]
      Maximum=    3.6806E+00  at reduced coord.    0.9722    0.9444    0.8229
      Minimum=    1.1871E-04  at reduced coord.    0.0278    0.0556    0.9549
   Integrated=    3.1200E+02
 ETOT 19  -2233.4668751249     2.048E+02 3.383E+00 1.868E+03
 scprqt: <Vxc>= -3.5873707E-01 hartree

 Pulay update with  7 previous iterations:
 mixing of old trial potential: alpha(m:m-4)=  0.246      0.481E-01  0.113      0.403     -0.539

--- !WARNING
src_file: m_drivexc.F90
src_line: 707
message: |
    Density went too small (lower than xc_denpos) at 7838 points
    and was set to xc_denpos =   1.00E-14. Lowest was  -0.10E-03.
    Likely due to too low boxcut or too low ecut for pseudopotential core charge.
...

 scfcv_core: previous iteration took 01:56 [minutes]

 ITER STEP NUMBER    20
 vtorho: nnsclo_now = 1, note that nnsclo, dbl_nnsclo, istep= 0 0 20
 Total charge density [el/Bohr^3]
      Maximum=    4.4033E+00  at reduced coord.    0.9444    0.9722    0.8229
      Minimum=    2.0603E-03  at reduced coord.    0.0000    0.0000    0.5000
   Integrated=    3.1200E+02
 ETOT 20  -2273.5931099131    -4.013E+01 5.996E+00 3.259E+03
 scprqt: <Vxc>= -3.5616747E-01 hartree

 Pulay update with  7 previous iterations:
 mixing of old trial potential: alpha(m:m-4)=  0.145      0.360      0.151      0.157E-02  0.304

--- !WARNING
src_file: m_drivexc.F90
src_line: 707
message: |
    Density went too small (lower than xc_denpos) at 147 points
    and was set to xc_denpos =   1.00E-14. Lowest was  -0.90E-04.
    Likely due to too low boxcut or too low ecut for pseudopotential core charge.
...

 scfcv_core: previous iteration took 01:56 [minutes]

 ITER STEP NUMBER    21
 vtorho: nnsclo_now = 1, note that nnsclo, dbl_nnsclo, istep= 0 0 21
 Total charge density [el/Bohr^3]
      Maximum=    4.5124E+00  at reduced coord.    0.9722    0.9444    0.8194
      Minimum=    6.0265E-04  at reduced coord.    0.0278    0.4722    0.9688
   Integrated=    3.1200E+02
 ETOT 21  -2269.0869432471     4.506E+00 6.071E+00 3.244E+03
 scprqt: <Vxc>= -3.5458127E-01 hartree

 Pulay update with  7 previous iterations:
 mixing of old trial potential: alpha(m:m-4)=  0.117      0.810E-01  0.352      0.163      0.646E-02

--- !WARNING
src_file: m_drivexc.F90
src_line: 707
message: |
    Density went too small (lower than xc_denpos) at 82 points
    and was set to xc_denpos =   1.00E-14. Lowest was  -0.49E-04.
    Likely due to too low boxcut or too low ecut for pseudopotential core charge.
...

 scfcv_core: previous iteration took 01:55 [minutes]

 ITER STEP NUMBER    22
 vtorho: nnsclo_now = 1, note that nnsclo, dbl_nnsclo, istep= 0 0 22
 Total charge density [el/Bohr^3]
      Maximum=    4.5872E+00  at reduced coord.    0.5000    0.5556    0.8264
      Minimum=    5.3175E-05  at reduced coord.    0.0833    0.2500    0.9722
   Integrated=    3.1200E+02
 ETOT 22  -2295.1616605928    -2.607E+01 3.268E-01 3.221E+03
 scprqt: <Vxc>= -3.5759302E-01 hartree

 Pulay update with  7 previous iterations:
 mixing of old trial potential: alpha(m:m-4)=  0.521     -0.251      0.132      0.466     -0.144E-01

--- !WARNING
src_file: m_drivexc.F90
src_line: 707
message: |
    Density went too small (lower than xc_denpos) at 9650 points
    and was set to xc_denpos =   1.00E-14. Lowest was  -0.15E-03.
    Likely due to too low boxcut or too low ecut for pseudopotential core charge.
...

 scfcv_core: previous iteration took 01:56 [minutes]

 ITER STEP NUMBER    23
 vtorho: nnsclo_now = 1, note that nnsclo, dbl_nnsclo, istep= 0 0 23
 Total charge density [el/Bohr^3]
      Maximum=    4.6953E+00  at reduced coord.    0.0000    0.9444    0.8160
      Minimum=    1.6593E-05  at reduced coord.    0.0556    0.0000    0.9757
   Integrated=    3.1200E+02
 ETOT 23  -2335.8124300551    -4.065E+01 5.124E-01 3.387E+03
 scprqt: <Vxc>= -3.6564007E-01 hartree

 Pulay update with  7 previous iterations:
 mixing of old trial potential: alpha(m:m-4)=  0.531      0.697E-01 -0.238      0.242E-01  0.515

--- !WARNING
src_file: m_drivexc.F90
src_line: 707
message: |
    Density went too small (lower than xc_denpos) at 11709 points
    and was set to xc_denpos =   1.00E-14. Lowest was  -0.21E-03.
    Likely due to too low boxcut or too low ecut for pseudopotential core charge.
...

 scfcv_core: previous iteration took 01:56 [minutes]

 ITER STEP NUMBER    24
 vtorho: nnsclo_now = 1, note that nnsclo, dbl_nnsclo, istep= 0 0 24
 Total charge density [el/Bohr^3]
      Maximum=    4.7345E+00  at reduced coord.    0.0000    0.9444    0.8160
      Minimum=    1.3714E-05  at reduced coord.    0.0000    0.5000    0.0035
   Integrated=    3.1200E+02
 ETOT 24  -2346.5233735654    -1.071E+01 3.182E+00 4.096E+03
 scprqt: <Vxc>= -3.6752174E-01 hartree

 Pulay update with  7 previous iterations:
 mixing of old trial potential: alpha(m:m-4)=  0.270      0.518     -0.105     -0.357      0.553E-01

--- !WARNING
src_file: m_drivexc.F90
src_line: 707
message: |
    Density went too small (lower than xc_denpos) at 14113 points
    and was set to xc_denpos =   1.00E-14. Lowest was  -0.28E-03.
    Likely due to too low boxcut or too low ecut for pseudopotential core charge.
...

 scfcv_core: previous iteration took 01:55 [minutes]

 ITER STEP NUMBER    25
 vtorho: nnsclo_now = 1, note that nnsclo, dbl_nnsclo, istep= 0 0 25
 Total charge density [el/Bohr^3]
      Maximum=    4.6022E+00  at reduced coord.    0.0000    0.9444    0.8264
      Minimum=    1.1986E-05  at reduced coord.    0.1944    0.0000    0.9896
   Integrated=    3.1200E+02
 ETOT 25  -2351.9764691682    -5.453E+00 2.776E-01 3.780E+03
 scprqt: <Vxc>= -3.6793829E-01 hartree

 Pulay update with  7 previous iterations:
 mixing of old trial potential: alpha(m:m-4)=  0.233      0.807E-01  0.508     -0.962E-01 -0.386

--- !WARNING
src_file: m_drivexc.F90
src_line: 707
message: |
    Density went too small (lower than xc_denpos) at 12559 points
    and was set to xc_denpos =   1.00E-14. Lowest was  -0.18E-03.
    Likely due to too low boxcut or too low ecut for pseudopotential core charge.
...

 scfcv_core: previous iteration took 01:54 [minutes]

 ITER STEP NUMBER    26
 vtorho: nnsclo_now = 1, note that nnsclo, dbl_nnsclo, istep= 0 0 26
 Total charge density [el/Bohr^3]
      Maximum=    4.7242E+00  at reduced coord.    0.0000    0.9444    0.8160
      Minimum=    1.0051E-05  at reduced coord.    0.0278    0.0000    0.0382
   Integrated=    3.1200E+02
 ETOT 26  -2390.5434337871    -3.857E+01 5.863E-01 7.058E+03
 scprqt: <Vxc>= -3.6853833E-01 hartree

 Pulay update with  7 previous iterations:
 mixing of old trial potential: alpha(m:m-4)= -0.159E-01  0.131      0.191      0.507     -0.181

--- !WARNING
src_file: m_drivexc.F90
src_line: 707
message: |
    Density went too small (lower than xc_denpos) at 10943 points
    and was set to xc_denpos =   1.00E-14. Lowest was  -0.15E-03.
    Likely due to too low boxcut or too low ecut for pseudopotential core charge.
...

 scfcv_core: previous iteration took 01:53 [minutes]

 ITER STEP NUMBER    27
 vtorho: nnsclo_now = 1, note that nnsclo, dbl_nnsclo, istep= 0 0 27
 Total charge density [el/Bohr^3]
      Maximum=    4.7431E+00  at reduced coord.    0.0000    0.9444    0.8160
      Minimum=    6.3417E-06  at reduced coord.    0.0000    0.5000    0.0035
   Integrated=    3.1200E+02
 ETOT 27  -2352.2892039323     3.825E+01 8.488E-02 6.754E+03
 scprqt: <Vxc>= -3.6661778E-01 hartree

 Pulay update with  7 previous iterations:
 mixing of old trial potential: alpha(m:m-4)=  0.749     -0.945       2.09      -1.29      0.417E-01

--- !WARNING
src_file: m_drivexc.F90
src_line: 707
message: |
    Density went too small (lower than xc_denpos) at 13701 points
    and was set to xc_denpos =   1.00E-14. Lowest was  -0.44E-03.
    Likely due to too low boxcut or too low ecut for pseudopotential core charge.
...

 scfcv_core: previous iteration took 01:52 [minutes]

 ITER STEP NUMBER    28
 vtorho: nnsclo_now = 1, note that nnsclo, dbl_nnsclo, istep= 0 0 28
 Total charge density [el/Bohr^3]
      Maximum=    2.8967E+00  at reduced coord.    0.5000    0.5000    0.8299
      Minimum=    2.2726E-04  at reduced coord.    0.5000    0.0000    0.9444
   Integrated=    3.1200E+02
 ETOT 28  -2393.9494394719    -4.166E+01 4.546E+01 7.877E+03
 scprqt: <Vxc>= -3.6566098E-01 hartree

 Pulay update with  7 previous iterations:
 mixing of old trial potential: alpha(m:m-4)=  0.310     -0.493      0.271       1.00     -0.724
 scfcv_core: previous iteration took 01:56 [minutes]

 ITER STEP NUMBER    29
 vtorho: nnsclo_now = 1, note that nnsclo, dbl_nnsclo, istep= 0 0 29
 Total charge density [el/Bohr^3]
      Maximum=    3.3072E+00  at reduced coord.    0.5000    0.5278    0.8264
      Minimum=    1.3354E-03  at reduced coord.    0.0000    0.0000    0.7292
   Integrated=    3.1200E+02
 ETOT 29  -2839.0992668938    -4.451E+02 9.037E+00 1.437E+04
 scprqt: <Vxc>= -3.7539814E-01 hartree

 Pulay update with  7 previous iterations:
 mixing of old trial potential: alpha(m:m-4)=  0.267      0.600E-01  -1.27       1.09      0.814

--- !WARNING
src_file: m_drivexc.F90
src_line: 707
message: |
    Density went too small (lower than xc_denpos) at 1004 points
    and was set to xc_denpos =   1.00E-14. Lowest was  -0.12E-03.
    Likely due to too low boxcut or too low ecut for pseudopotential core charge.
...

 scfcv_core: previous iteration took 01:56 [minutes]

 ITER STEP NUMBER    30
 vtorho: nnsclo_now = 1, note that nnsclo, dbl_nnsclo, istep= 0 0 30
 Total charge density [el/Bohr^3]
      Maximum=    4.1604E+00  at reduced coord.    0.9722    0.9722    0.8160
      Minimum=    1.0939E-03  at reduced coord.    0.0000    0.0000    0.6528
   Integrated=    3.1200E+02
 ETOT 30  -2281.3097022389     5.578E+02 7.918E+00 5.788E+03
 scprqt: <Vxc>= -3.7955223E-01 hartree

 Pulay update with  7 previous iterations:
 mixing of old trial potential: alpha(m:m-4)=  0.239      0.105      0.716E-01  -1.10      0.870

--- !WARNING
src_file: m_drivexc.F90
src_line: 707
message: |
    Density went too small (lower than xc_denpos) at 4236 points
    and was set to xc_denpos =   1.00E-14. Lowest was  -0.22E-03.
    Likely due to too low boxcut or too low ecut for pseudopotential core charge.
...

 scfcv_core: previous iteration took 01:56 [minutes]

 ITER STEP NUMBER    31
 vtorho: nnsclo_now = 1, note that nnsclo, dbl_nnsclo, istep= 0 0 31
 Total charge density [el/Bohr^3]
      Maximum=    3.6134E+00  at reduced coord.    0.9722    0.9722    0.8160
      Minimum=    3.3029E-04  at reduced coord.    0.0000    0.0000    0.6528
   Integrated=    3.1200E+02
 ETOT 31  -2307.9787519056    -2.667E+01 2.913E+00 4.075E+03
 scprqt: <Vxc>= -3.7645936E-01 hartree

 Pulay update with  7 previous iterations:
 mixing of old trial potential: alpha(m:m-4)=  0.344      0.172E-01  0.728E-01  0.282E-01  0.322

--- !WARNING
src_file: m_drivexc.F90
src_line: 707
message: |
    Density went too small (lower than xc_denpos) at 14 points
    and was set to xc_denpos =   1.00E-14. Lowest was  -0.51E-05.
    Likely due to too low boxcut or too low ecut for pseudopotential core charge.
...

 scfcv_core: previous iteration took 01:56 [minutes]

 ITER STEP NUMBER    32
 vtorho: nnsclo_now = 1, note that nnsclo, dbl_nnsclo, istep= 0 0 32
 Total charge density [el/Bohr^3]
      Maximum=    4.5021E+00  at reduced coord.    0.9722    0.9444    0.8229
      Minimum=    4.0579E-04  at reduced coord.    0.0000    0.0000    0.4826
   Integrated=    3.1200E+02
 ETOT 32  -2317.0280956173    -9.049E+00 6.462E+00 4.204E+03
 scprqt: <Vxc>= -3.7542506E-01 hartree

 Pulay update with  7 previous iterations:
 mixing of old trial potential: alpha(m:m-4)=  0.163      0.277     -0.257E-01  0.316E-01  0.810E-01

--- !WARNING
src_file: m_drivexc.F90
src_line: 707
message: |
    Density went too small (lower than xc_denpos) at 1274 points
    and was set to xc_denpos =   1.00E-14. Lowest was  -0.64E-04.
    Likely due to too low boxcut or too low ecut for pseudopotential core charge.
...

 scfcv_core: previous iteration took 01:56 [minutes]

 ITER STEP NUMBER    33
 vtorho: nnsclo_now = 1, note that nnsclo, dbl_nnsclo, istep= 0 0 33
 Total charge density [el/Bohr^3]
      Maximum=    3.7010E+00  at reduced coord.    0.5000    0.5556    0.8194
      Minimum=    3.4223E-04  at reduced coord.    0.0000    0.0556    0.5764
   Integrated=    3.1200E+02
 ETOT 33  -2234.5588753664     8.247E+01 3.194E+00 1.675E+03
 scprqt: <Vxc>= -3.7370037E-01 hartree

 Pulay update with  7 previous iterations:
 mixing of old trial potential: alpha(m:m-4)=  0.407      0.630E-02  0.212      0.252E-01  0.120E-01
 scfcv_core: previous iteration took 01:56 [minutes]

 ITER STEP NUMBER    34
 vtorho: nnsclo_now = 1, note that nnsclo, dbl_nnsclo, istep= 0 0 34
 Total charge density [el/Bohr^3]
      Maximum=    4.2552E+00  at reduced coord.    0.9444    0.9722    0.8194
      Minimum=    1.4768E-04  at reduced coord.    0.5000    0.0000    0.0035
   Integrated=    3.1200E+02
 ETOT 34  -2265.0054723585    -3.045E+01 2.660E+00 1.250E+03
 scprqt: <Vxc>= -3.6952829E-01 hartree

 Pulay update with  7 previous iterations:
 mixing of old trial potential: alpha(m:m-4)=  0.463     -0.427E-01  0.582E-01  0.200     -0.120E-01
 scfcv_core: previous iteration took 01:56 [minutes]

 ITER STEP NUMBER    35
 vtorho: nnsclo_now = 1, note that nnsclo, dbl_nnsclo, istep= 0 0 35
 Total charge density [el/Bohr^3]
      Maximum=    4.4600E+00  at reduced coord.    0.5000    0.5556    0.8160
      Minimum=    6.7050E-05  at reduced coord.    0.5000    0.0000    0.9965
   Integrated=    3.1200E+02
 ETOT 35  -2272.7766641257    -7.771E+00 1.546E+00 1.104E+03
 scprqt: <Vxc>= -3.7081288E-01 hartree

 Pulay update with  7 previous iterations:
 mixing of old trial potential: alpha(m:m-4)=  0.265      0.371     -0.683E-01  0.238      0.422E-01
 scfcv_core: previous iteration took 01:55 [minutes]

 ITER STEP NUMBER    36
 vtorho: nnsclo_now = 1, note that nnsclo, dbl_nnsclo, istep= 0 0 36
 Total charge density [el/Bohr^3]
      Maximum=    3.4448E+00  at reduced coord.    0.5000    0.5278    0.8160
      Minimum=    2.1607E-05  at reduced coord.    0.5000    0.0000    0.0139
   Integrated=    3.1200E+02
 ETOT 36  -2306.0656019063    -3.329E+01 1.709E+00 1.653E+03
 scprqt: <Vxc>= -3.6470415E-01 hartree

 Pulay update with  7 previous iterations:
 mixing of old trial potential: alpha(m:m-4)=  0.624      0.146      0.263     -0.423      0.307

--- !WARNING
src_file: m_drivexc.F90
src_line: 707
message: |
    Density went too small (lower than xc_denpos) at 7253 points
    and was set to xc_denpos =   1.00E-14. Lowest was  -0.30E-03.
    Likely due to too low boxcut or too low ecut for pseudopotential core charge.
...

 scfcv_core: previous iteration took 01:56 [minutes]

 ITER STEP NUMBER    37
 vtorho: nnsclo_now = 1, note that nnsclo, dbl_nnsclo, istep= 0 0 37
 Total charge density [el/Bohr^3]
      Maximum=    3.3728E+00  at reduced coord.    0.5000    0.5278    0.8160
      Minimum=    5.6630E-06  at reduced coord.    0.5000    0.0000    0.0243
   Integrated=    3.1200E+02
 ETOT 37  -2351.5690423085    -4.550E+01 9.683E-01 4.161E+03
 scprqt: <Vxc>= -3.6174861E-01 hartree

 Pulay update with  7 previous iterations:
 mixing of old trial potential: alpha(m:m-4)=  0.147      0.535      0.267      0.151     -0.498

--- !WARNING
src_file: m_drivexc.F90
src_line: 707
message: |
    Density went too small (lower than xc_denpos) at 7295 points
    and was set to xc_denpos =   1.00E-14. Lowest was  -0.31E-03.
    Likely due to too low boxcut or too low ecut for pseudopotential core charge.
...

 scfcv_core: previous iteration took 01:56 [minutes]

 ITER STEP NUMBER    38
 vtorho: nnsclo_now = 1, note that nnsclo, dbl_nnsclo, istep= 0 0 38
 Total charge density [el/Bohr^3]
      Maximum=    3.3649E+00  at reduced coord.    0.5000    0.5278    0.8160
      Minimum=    6.6928E-06  at reduced coord.    0.5000    0.0000    0.0243
   Integrated=    3.1200E+02
 ETOT 38  -2326.7962655015     2.477E+01 1.066E+00 1.907E+03
 scprqt: <Vxc>= -3.6264717E-01 hartree

 Pulay update with  7 previous iterations:
 mixing of old trial potential: alpha(m:m-4)=  0.485      0.522E-01  0.164      0.400      0.513E-01

--- !WARNING
src_file: m_drivexc.F90
src_line: 707
message: |
    Density went too small (lower than xc_denpos) at 2461 points
    and was set to xc_denpos =   1.00E-14. Lowest was  -0.17E-03.
    Likely due to too low boxcut or too low ecut for pseudopotential core charge.
...

 scfcv_core: previous iteration took 01:56 [minutes]

 ITER STEP NUMBER    39
 vtorho: nnsclo_now = 1, note that nnsclo, dbl_nnsclo, istep= 0 0 39
 Total charge density [el/Bohr^3]
      Maximum=    3.3806E+00  at reduced coord.    0.5000    0.5278    0.8160
      Minimum=    1.9456E-05  at reduced coord.    0.0000    0.4167    0.0382
   Integrated=    3.1200E+02
 ETOT 39  -2265.2785908353     6.152E+01 1.334E+00 1.451E+03
 scprqt: <Vxc>= -3.6318058E-01 hartree

 Pulay update with  7 previous iterations:
 mixing of old trial potential: alpha(m:m-4)=  0.738      0.185      0.485E-01 -0.234      0.336

--- !WARNING
src_file: m_drivexc.F90
src_line: 707
message: |
    Density went too small (lower than xc_denpos) at 2525 points
    and was set to xc_denpos =   1.00E-14. Lowest was  -0.18E-03.
    Likely due to too low boxcut or too low ecut for pseudopotential core charge.
...

 scfcv_core: previous iteration took 01:55 [minutes]

 ITER STEP NUMBER    40
 vtorho: nnsclo_now = 1, note that nnsclo, dbl_nnsclo, istep= 0 0 40
 Total charge density [el/Bohr^3]
      Maximum=    3.4294E+00  at reduced coord.    0.5000    0.5278    0.8160
      Minimum=    1.6673E-05  at reduced coord.    0.0000    0.1111    0.0417
   Integrated=    3.1200E+02
 ETOT 40  -2326.0660386306    -6.079E+01 3.149E+00 2.192E+03
 scprqt: <Vxc>= -3.6018429E-01 hartree

 Pulay update with  7 previous iterations:
 mixing of old trial potential: alpha(m:m-4)=  0.219      0.589      0.118      0.454E-01 -0.531

--- !WARNING
src_file: m_drivexc.F90
src_line: 707
message: |
    Density went too small (lower than xc_denpos) at 631 points
    and was set to xc_denpos =   1.00E-14. Lowest was  -0.24E-03.
    Likely due to too low boxcut or too low ecut for pseudopotential core charge.
...

 scfcv_core: previous iteration took 01:55 [minutes]

 ITER STEP NUMBER    41
 vtorho: nnsclo_now = 1, note that nnsclo, dbl_nnsclo, istep= 0 0 41
 Total charge density [el/Bohr^3]
      Maximum=    4.0493E+00  at reduced coord.    0.9722    0.9722    0.8160
      Minimum=    9.4886E-05  at reduced coord.    0.5000    0.0000    0.0243
   Integrated=    3.1200E+02
 ETOT 41  -2302.7705751698     2.330E+01 1.744E+01 6.742E+03
 scprqt: <Vxc>= -3.5440550E-01 hartree

 Pulay update with  7 previous iterations:
 mixing of old trial potential: alpha(m:m-4)=  0.178      0.152      0.302      0.108E-01  0.684E-01
 scfcv_core: previous iteration took 01:55 [minutes]

 ITER STEP NUMBER    42
 vtorho: nnsclo_now = 1, note that nnsclo, dbl_nnsclo, istep= 0 0 42
 Total charge density [el/Bohr^3]
      Maximum=    4.8587E+00  at reduced coord.    0.9444    0.9722    0.8194
      Minimum=    4.4701E-05  at reduced coord.    0.5000    0.0000    0.0139
   Integrated=    3.1200E+02
 ETOT 42  -2215.3541926843     8.742E+01 1.161E+00 1.925E+03
 scprqt: <Vxc>= -3.6284765E-01 hartree

 Pulay update with  7 previous iterations:
 mixing of old trial potential: alpha(m:m-4)=  0.131      0.115      0.165      0.257     -0.451E-02
 scfcv_core: previous iteration took 01:56 [minutes]

 ITER STEP NUMBER    43
 vtorho: nnsclo_now = 1, note that nnsclo, dbl_nnsclo, istep= 0 0 43
 Total charge density [el/Bohr^3]
      Maximum=    4.7313E+00  at reduced coord.    0.0000    0.9444    0.8160
      Minimum=    2.8744E-05  at reduced coord.    0.1944    0.3056    0.0000
   Integrated=    3.1200E+02
 ETOT 43  -2258.4090238217    -4.305E+01 1.054E+00 1.005E+03
 scprqt: <Vxc>= -3.6199523E-01 hartree

 Pulay update with  7 previous iterations:
 mixing of old trial potential: alpha(m:m-4)=  0.485      0.662E-02  0.859E-01  0.152      0.133
 scfcv_core: previous iteration took 01:56 [minutes]

 ITER STEP NUMBER    44
 vtorho: nnsclo_now = 1, note that nnsclo, dbl_nnsclo, istep= 0 0 44
 Total charge density [el/Bohr^3]
      Maximum=    4.7303E+00  at reduced coord.    0.5000    0.5556    0.8264
      Minimum=    8.3660E-05  at reduced coord.    0.1111    0.0000    0.9826
   Integrated=    3.1200E+02
 ETOT 44  -2280.1417727054    -2.173E+01 4.868E+00 1.908E+03
 scprqt: <Vxc>= -3.6271722E-01 hartree

 Pulay update with  7 previous iterations:
 mixing of old trial potential: alpha(m:m-4)=  0.192      0.311     -0.711E-02  0.852E-01  0.686E-01
 scfcv_core: previous iteration took 01:56 [minutes]

 ITER STEP NUMBER    45
 vtorho: nnsclo_now = 1, note that nnsclo, dbl_nnsclo, istep= 0 0 45
 Total charge density [el/Bohr^3]
      Maximum=    4.7793E+00  at reduced coord.    0.0000    0.9444    0.8264
      Minimum=    3.4859E-05  at reduced coord.    0.2500    0.2500    0.9792
   Integrated=    3.1200E+02
 ETOT 45  -2252.8306203631     2.731E+01 6.163E-01 8.599E+02
 scprqt: <Vxc>= -3.6279013E-01 hartree

 Pulay update with  7 previous iterations:
 mixing of old trial potential: alpha(m:m-4)=  0.314      0.935E-01  0.175     -0.989E-01  0.130
 scfcv_core: previous iteration took 01:55 [minutes]

 ITER STEP NUMBER    46
 vtorho: nnsclo_now = 1, note that nnsclo, dbl_nnsclo, istep= 0 0 46
 Total charge density [el/Bohr^3]
      Maximum=    4.6274E+00  at reduced coord.    0.0000    0.9444    0.8264
      Minimum=    2.1275E-05  at reduced coord.    0.0000    0.5000    0.0035
   Integrated=    3.1200E+02
 ETOT 46  -2254.7874220237    -1.957E+00 4.051E-01 6.044E+02
 scprqt: <Vxc>= -3.6075726E-01 hartree

 Pulay update with  7 previous iterations:
 mixing of old trial potential: alpha(m:m-4)=  0.350     -0.289E-01  0.144      0.150     -0.120
 scfcv_core: previous iteration took 01:55 [minutes]

 ITER STEP NUMBER    47
 vtorho: nnsclo_now = 1, note that nnsclo, dbl_nnsclo, istep= 0 0 47
 Total charge density [el/Bohr^3]
      Maximum=    4.7417E+00  at reduced coord.    0.0000    0.9444    0.8160
      Minimum=    1.9010E-05  at reduced coord.    0.5000    0.0000    0.9479
   Integrated=    3.1200E+02
 ETOT 47  -2271.1875606635    -1.640E+01 8.749E-01 7.812E+02
 scprqt: <Vxc>= -3.5899498E-01 hartree

 Pulay update with  7 previous iterations:
 mixing of old trial potential: alpha(m:m-4)=  0.327      0.475     -0.351      0.140      0.145
 scfcv_core: previous iteration took 01:55 [minutes]

 ITER STEP NUMBER    48
 vtorho: nnsclo_now = 1, note that nnsclo, dbl_nnsclo, istep= 0 0 48
 Total charge density [el/Bohr^3]
      Maximum=    4.7143E+00  at reduced coord.    0.0000    0.9444    0.8264
      Minimum=    1.3559E-05  at reduced coord.    0.2500    0.2500    0.9688
   Integrated=    3.1200E+02
 ETOT 48  -2288.9215828322    -1.773E+01 3.188E-01 9.436E+02
 scprqt: <Vxc>= -3.6086503E-01 hartree

[...]
                       3.50000000E-01  3.50000000E-01  1.50000000E-01
                       3.00000000E-01  3.00000000E-01  2.00000000E-01
                       2.50000000E-01  2.50000000E-01  2.50000000E-01
                       2.00000000E-01  2.00000000E-01  3.00000000E-01
                       1.50000000E-01  1.50000000E-01  3.50000000E-01
                       1.00000000E-01  1.00000000E-01  4.00000000E-01
                       5.00000000E-02  5.00000000E-02  4.50000000E-01
                       0.00000000E+00  0.00000000E+00  5.00000000E-01
                       0.00000000E+00  0.00000000E+00  4.58333333E-01
                       0.00000000E+00  0.00000000E+00  4.16666667E-01
                       0.00000000E+00  0.00000000E+00  3.75000000E-01
                       0.00000000E+00  0.00000000E+00  3.33333333E-01
                       0.00000000E+00  0.00000000E+00  2.91666667E-01
                       0.00000000E+00  0.00000000E+00  2.50000000E-01
                       0.00000000E+00  0.00000000E+00  2.08333333E-01
                       0.00000000E+00  0.00000000E+00  1.66666667E-01
                       0.00000000E+00  0.00000000E+00  1.25000000E-01
                       0.00000000E+00  0.00000000E+00  8.33333333E-02
                       0.00000000E+00  0.00000000E+00  4.16666667E-02
                       0.00000000E+00  0.00000000E+00  0.00000000E+00
                       2.77777778E-02  2.77777778E-02  2.77777778E-02
                       5.55555556E-02  5.55555556E-02  5.55555556E-02
                       8.33333333E-02  8.33333333E-02  8.33333333E-02
                       1.11111111E-01  1.11111111E-01  1.11111111E-01
                       1.38888889E-01  1.38888889E-01  1.38888889E-01
                       1.66666667E-01  1.66666667E-01  1.66666667E-01
                       1.94444444E-01  1.94444444E-01  1.94444444E-01
                       2.22222222E-01  2.22222222E-01  2.22222222E-01
                       2.50000000E-01  2.50000000E-01  2.50000000E-01
                       2.77777778E-01  2.77777778E-01  2.77777778E-01
                       3.05555556E-01  3.05555556E-01  3.05555556E-01
                       3.33333333E-01  3.33333333E-01  3.33333333E-01
                       3.61111111E-01  3.61111111E-01  3.61111111E-01
                       3.88888889E-01  3.88888889E-01  3.88888889E-01
                       4.16666667E-01  4.16666667E-01  4.16666667E-01
                       4.44444444E-01  4.44444444E-01  4.44444444E-01
                       4.72222222E-01  4.72222222E-01  4.72222222E-01
                       5.00000000E-01  5.00000000E-01  5.00000000E-01
                       4.37500000E-01  5.00000000E-01  5.00000000E-01
                       3.75000000E-01  5.00000000E-01  5.00000000E-01
                       3.12500000E-01  5.00000000E-01  5.00000000E-01
                       2.50000000E-01  5.00000000E-01  5.00000000E-01
                       1.87500000E-01  5.00000000E-01  5.00000000E-01
                       1.25000000E-01  5.00000000E-01  5.00000000E-01
                       6.25000000E-02  5.00000000E-01  5.00000000E-01
                       0.00000000E+00  5.00000000E-01  5.00000000E-01
                       0.00000000E+00  5.00000000E-01  4.37500000E-01
              kpt3     6.25000000E-02  6.25000000E-02  5.00000000E-01
                       1.87500000E-01  6.25000000E-02  5.00000000E-01
                       3.12500000E-01  6.25000000E-02  5.00000000E-01
                       4.37500000E-01  6.25000000E-02  5.00000000E-01
                       1.87500000E-01  1.87500000E-01  5.00000000E-01
                       3.12500000E-01  1.87500000E-01  5.00000000E-01
                       4.37500000E-01  1.87500000E-01  5.00000000E-01
                       3.12500000E-01  3.12500000E-01  5.00000000E-01
                       4.37500000E-01  3.12500000E-01  5.00000000E-01
                       4.37500000E-01  4.37500000E-01  5.00000000E-01
                       outvar_i_n : Printing only first  50 k-points.
           kptopt1          1
           kptopt2         -5
           kptopt3          1
         kptrlatt        8    0    0      0    8    0      0    0    1
          kptrlen1     6.20994534E+01
          kptrlen2     3.00000000E+01
          kptrlen3     6.20994534E+01
P           mkmem1          2
P           mkmem2         10
P           mkmem3          2
            natom          20
           natsph3       4
            nband1        165
            nband2        165
            nband3        165
           nbdbuf1          0
           nbdbuf2          2
           nbdbuf3          2
           ndtset           3
            ngfft          36      36     288
             nkpt1         10
             nkpt2         57
             nkpt3         10
            nstep1        400
            nstep2        300
            nstep3        300
             nsym           8
           ntypat           3
              occ      2.000000  2.000000  2.000000  2.000000  2.000000  2.000000
                       2.000000  2.000000  2.000000  2.000000  2.000000  2.000000
                       2.000000  2.000000  2.000000  2.000000  2.000000  2.000000
                       2.000000  2.000000  2.000000  2.000000  2.000000  2.000000
                       2.000000  2.000000  2.000000  2.000000  2.000000  2.000000
                       2.000000  2.000000  2.000000  2.000000  2.000000  2.000000
                       2.000000  2.000000  2.000000  2.000000  2.000000  2.000000
                       2.000000  2.000000  2.000000  2.000000  2.000000  2.000000
                       2.000000  2.000000  2.000000  2.000000  2.000000  2.000000
                       2.000000  2.000000  2.000000  2.000000  2.000000  2.000000
                       2.000000  2.000000  2.000000  2.000000  2.000000  2.000000
                       2.000000  2.000000  2.000000  2.000000  2.000000  2.000000
                       2.000000  2.000000  2.000000  2.000000  2.000000  2.000000
                       2.000000  2.000000  2.000000  2.000000  2.000000  2.000000
                       2.000000  2.000000  2.000000  2.000000  2.000000  2.000000
                       2.000000  2.000000  2.000000  2.000000  2.000000  2.000000
                       2.000000  2.000000  2.000000  2.000000  2.000000  2.000000
                       2.000000  2.000000  2.000000  2.000000  2.000000  2.000000
                       2.000000  2.000000  2.000000  2.000000  2.000000  2.000000
                       2.000000  2.000000  2.000000  2.000000  2.000000  2.000000
                       2.000000  2.000000  2.000000  2.000000  2.000000  2.000000
                       2.000000  2.000000  2.000000  2.000000  2.000000  2.000000
                       2.000000  2.000000  2.000000  2.000000  2.000000  2.000000
                       2.000000  2.000000  2.000000  2.000000  2.000000  2.000000
                       2.000000  2.000000  2.000000  2.000000  2.000000  2.000000
                       2.000000  2.000000  2.000000  2.000000  2.000000  2.000000
                       0.000000  0.000000  0.000000  0.000000  0.000000  0.000000
                       0.000000  0.000000  0.000000
           prtcif           1
           prtdos1          0
           prtdos2          0
           prtdos3          3
            rprim      1.0000000000E+00  0.0000000000E+00  0.0000000000E+00
                       0.0000000000E+00  1.0000000000E+00  0.0000000000E+00
                       1.0000000000E-15  1.0000000000E-15  8.3913010243E+00
           shiftk      5.00000000E-01  5.00000000E-01  5.00000000E-01
          spgroup          99
           strten1     1.6109017780E-02  1.6109017780E-02  1.5841163243E-02
                       0.0000000000E+00  0.0000000000E+00  0.0000000000E+00
           symrel      1  0  0   0  1  0   0  0  1       1  0  0   0 -1  0   0  0  1
                      -1  0  0   0 -1  0   0  0  1      -1  0  0   0  1  0   0  0  1
                       0  1  0   1  0  0   0  0  1       0  1  0  -1  0  0   0  0  1
                       0 -1  0  -1  0  0   0  0  1       0 -1  0   1  0  0   0  0  1
            tnons      0.0000000  0.0000000  0.0000000     0.0000000 -0.0000000  0.0000000
                      -0.0000000 -0.0000000  0.0000000    -0.0000000  0.0000000  0.0000000
                       0.5000000  0.5000000  0.0000000     0.5000000  0.5000000  0.0000000
                       0.5000000  0.5000000  0.0000000     0.5000000  0.5000000  0.0000000
           tolwfr      1.00000000E-20
            typat      1  1  1  1  1  1  1  1  2  2  2  2  2  2  2  2  2  2  3  3
           vdw_xc           5
              wtk1       0.06250    0.12500    0.12500    0.12500    0.06250    0.12500
                         0.12500    0.06250    0.12500    0.06250
              wtk2       1.00000    1.00000    1.00000    1.00000    1.00000    1.00000
                         1.00000    1.00000    1.00000    1.00000    1.00000    1.00000
                         1.00000    1.00000    1.00000    1.00000    1.00000    1.00000
                         1.00000    1.00000    1.00000    1.00000    1.00000    1.00000
                         1.00000    1.00000    1.00000    1.00000    1.00000    1.00000
                         1.00000    1.00000    1.00000    1.00000    1.00000    1.00000
                         1.00000    1.00000    1.00000    1.00000    1.00000    1.00000
                         1.00000    1.00000    1.00000    1.00000    1.00000    1.00000
                         1.00000    1.00000
              wtk3       0.06250    0.12500    0.12500    0.12500    0.06250    0.12500
                         0.12500    0.06250    0.12500    0.06250
                       outvars : Printing only first  50 k-points.
           xangst      2.0538509643E+00  5.5610890249E-16  4.6664772030E+00
                       8.8378439303E-16  2.0538509643E+00  7.4161008824E+00
                       2.0538509643E+00  1.2038893889E-15  1.0102198262E+01
                       1.5315648795E-15  2.0538509643E+00  1.2851821942E+01
                       2.0538509643E+00  1.8516698753E-15  1.5537919322E+01
                       2.1793453659E-15  2.0538509643E+00  1.8287543001E+01
                       2.0538509643E+00  2.4994503618E-15  2.0973640381E+01
                       2.8271299600E-15  2.0538509643E+00  2.3723298529E+01
                       5.5989209596E-16  2.0538509643E+00  4.6982231183E+00
                       2.0538509643E+00  8.7999709185E-16  7.3843204982E+00
                       1.2076766901E-15  2.0538509643E+00  1.0133978647E+01
                       2.0538509643E+00  1.5277816860E-15  1.2820076026E+01
                       1.8554571765E-15  2.0538509643E+00  1.5569699706E+01
                       2.0538509643E+00  2.1755621724E-15  1.8255797086E+01
                       2.5032376629E-15  2.0538509643E+00  2.1005420765E+01
                       2.0538509643E+00  2.8233426588E-15  2.3691518145E+01
                       2.0538509643E+00  3.1952704222E-15  2.6812475967E+01
                       3.5515930260E-15  2.0538509643E+00  2.9802486197E+01
                       2.0538509643E+00  2.0538509643E+00  2.8307498317E+01
                       3.3734337780E-15  3.3734337780E-15  2.8307498317E+01
            xcart      3.8812158402E+00  1.0508935258E-15  8.8183639191E+00
                       1.6701104633E-15  3.8812158402E+00  1.4014399642E+01
                       3.8812158402E+00  2.2750212393E-15  1.9090388056E+01
                       2.8942381769E-15  3.8812158402E+00  2.4286423778E+01
                       3.8812158402E+00  3.4991489529E-15  2.9362412193E+01
                       4.1183658905E-15  3.8812158402E+00  3.4558447915E+01
                       3.8812158402E+00  4.7232766665E-15  3.9634436329E+01
                       5.3425013665E-15  3.8812158402E+00  4.4830537189E+01
                       1.0580427253E-15  3.8812158402E+00  8.8783550048E+00
                       3.8812158402E+00  1.6629535013E-15  1.3954343419E+01
                       2.2821782013E-15  3.8812158402E+00  1.9150444278E+01
                       3.8812158402E+00  2.8870889773E-15  2.4226432693E+01
                       3.5063059149E-15  3.8812158402E+00  2.9422468415E+01
                       3.8812158402E+00  4.1112166909E-15  3.4498456829E+01
                       4.7304336285E-15  3.8812158402E+00  3.9694492552E+01
                       3.8812158402E+00  5.3353444045E-15  4.4770480966E+01
                       3.8812158402E+00  6.0381860185E-15  5.0668236522E+01
                       6.7115381547E-15  3.8812158402E+00  5.6318536992E+01
                       3.8812158402E+00  3.8812158402E+00  5.3493419325E+01
                       6.3748659678E-15  6.3748659678E-15  5.3493419325E+01
             xred      5.0000000000E-01  2.5451086397E-32  1.3538200000E-01
                      -1.2553174550E-32  5.0000000000E-01  2.1515300000E-01
                       5.0000000000E-01 -2.5603026039E-32  2.9308100000E-01
                      -4.1574609594E-32  5.0000000000E-01  3.7285200000E-01
                       5.0000000000E-01 -5.4624461082E-32  4.5078000000E-01
                      -1.1466139942E-31  5.0000000000E-01  5.3055100000E-01
                       5.0000000000E-01  2.0200168819E-32  6.0847900000E-01
                      -7.4331858357E-32  5.0000000000E-01  6.8825100000E-01
                      -5.4468158982E-33  5.0000000000E-01  1.3630300000E-01
                       5.0000000000E-01 -1.8496667387E-32  2.1423100000E-01
                      -4.6930662386E-32  5.0000000000E-01  2.9400300000E-01
                       5.0000000000E-01 -1.0676707299E-32  3.7193100000E-01
                       2.7893967515E-32  5.0000000000E-01  4.5170200000E-01
                       5.0000000000E-01  9.6056642341E-33  5.2963000000E-01
                      -5.0431274105E-32  5.0000000000E-01  6.0940100000E-01
                       5.0000000000E-01 -1.1278493217E-31  6.8732900000E-01
                       5.0000000000E-01 -9.3691669479E-32  7.7787300000E-01
                      -1.0526112392E-31  5.0000000000E-01  8.6461800000E-01
                       5.0000000000E-01  5.0000000000E-01  8.2124600000E-01
                      -6.7420134542E-32 -6.7420134542E-32  8.2124600000E-01
            znucl       50.00000   34.00000   30.00000

================================================================================
  

================================================================================

 Suggested references for the acknowledgment of ABINIT usage.

 The users of ABINIT have little formal obligations with respect to the ABINIT group
 (those specified in the GNU General Public License, http://www.gnu.org/copyleft/gpl.txt).
 However, it is common practice in the scientific literature,
 to acknowledge the efforts of people that have made the research possible.
 In this spirit, please find below suggested citations of work written by ABINIT developers,
 corresponding to implementations inside of ABINIT that you have used in the present run.
 Note also that it will be of great value to readers of publications presenting these results,
 to read papers enabling them to understand the theoretical formalism and details
 of the ABINIT implementation.
 For information on why they are suggested, see also https://docs.abinit.org/theory/acknowledgments.
-
- [1] Libxc: A library of exchange and correlation functionals for density functional theory.
- M.A.L. Marques, M.J.T. Oliveira, T. Burnus, Computer Physics Communications 183, 2227 (2012).
- Comment: to be cited when LibXC is used (negative value of ixc)
- Strong suggestion to cite this paper.
- DOI and bibtex: see https://docs.abinit.org/theory/bibliography/#marques2012
-
- [2] The Abinit project: Impact, environment and recent developments.
- Computer Phys. Comm. 248, 107042 (2020).
- X.Gonze, B. Amadon, G. Antonius, F.Arnardi, L.Baguet, J.-M.Beuken,
- J.Bieder, F.Bottin, J.Bouchet, E.Bousquet, N.Brouwer, F.Bruneval,
- G.Brunin, T.Cavignac, J.-B. Charraud, Wei Chen, M.Cote, S.Cottenier,
- J.Denier, G.Geneste, Ph.Ghosez, M.Giantomassi, Y.Gillet, O.Gingras,
- D.R.Hamann, G.Hautier, Xu He, N.Helbig, N.Holzwarth, Y.Jia, F.Jollet,
- W.Lafargue-Dit-Hauret, K.Lejaeghere, M.A.L.Marques, A.Martin, C.Martins,
- H.P.C. Miranda, F.Naccarato, K. Persson, G.Petretto, V.Planes, Y.Pouillon,
- S.Prokhorenko, F.Ricci, G.-M.Rignanese, A.H.Romero, M.M.Schmitt, M.Torrent,
- M.J.van Setten, B.Van Troeye, M.J.Verstraete, G.Zerah and J.W.Zwanzig
- Comment: the fifth generic paper describing the ABINIT project.
- Note that a version of this paper, that is not formatted for Computer Phys. Comm. 
- is available at https://www.abinit.org/sites/default/files/ABINIT20.pdf .
- The licence allows the authors to put it on the Web.
- DOI and bibtex: see https://docs.abinit.org/theory/bibliography/#gonze2020
-
- [3] Optimized norm-conserving Vanderbilt pseudopotentials.
- D.R. Hamann, Phys. Rev. B 88, 085117 (2013).
- Comment: Some pseudopotential generated using the ONCVPSP code were used.
- DOI and bibtex: see https://docs.abinit.org/theory/bibliography/#hamann2013
-
- [4] ABINIT: Overview, and focus on selected capabilities
- J. Chem. Phys. 152, 124102 (2020).
- A. Romero, D.C. Allan, B. Amadon, G. Antonius, T. Applencourt, L.Baguet,
- J.Bieder, F.Bottin, J.Bouchet, E.Bousquet, F.Bruneval,
- G.Brunin, D.Caliste, M.Cote,
- J.Denier, C. Dreyer, Ph.Ghosez, M.Giantomassi, Y.Gillet, O.Gingras,
- D.R.Hamann, G.Hautier, F.Jollet, G. Jomard,
- A.Martin, 
- H.P.C. Miranda, F.Naccarato, G.Petretto, N.A. Pike, V.Planes,
- S.Prokhorenko, T. Rangel, F.Ricci, G.-M.Rignanese, M.Royo, M.Stengel, M.Torrent,
- M.J.van Setten, B.Van Troeye, M.J.Verstraete, J.Wiktor, J.W.Zwanziger, and X.Gonze.
- Comment: a global overview of ABINIT, with focus on selected capabilities .
- Note that a version of this paper, that is not formatted for J. Chem. Phys 
- is available at https://www.abinit.org/sites/default/files/ABINIT20_JPC.pdf .
- The licence allows the authors to put it on the Web.
- DOI and bibtex: see https://docs.abinit.org/theory/bibliography/#romero2020
-
- [5] Recent developments in the ABINIT software package.
- Computer Phys. Comm. 205, 106 (2016).
- X.Gonze, F.Jollet, F.Abreu Araujo, D.Adams, B.Amadon, T.Applencourt,
- C.Audouze, J.-M.Beuken, J.Bieder, A.Bokhanchuk, E.Bousquet, F.Bruneval
- D.Caliste, M.Cote, F.Dahm, F.Da Pieve, M.Delaveau, M.Di Gennaro,
- B.Dorado, C.Espejo, G.Geneste, L.Genovese, A.Gerossier, M.Giantomassi,
- Y.Gillet, D.R.Hamann, L.He, G.Jomard, J.Laflamme Janssen, S.Le Roux,
- A.Levitt, A.Lherbier, F.Liu, I.Lukacevic, A.Martin, C.Martins,
- M.J.T.Oliveira, S.Ponce, Y.Pouillon, T.Rangel, G.-M.Rignanese,
- A.H.Romero, B.Rousseau, O.Rubel, A.A.Shukri, M.Stankovski, M.Torrent,
- M.J.Van Setten, B.Van Troeye, M.J.Verstraete, D.Waroquier, J.Wiktor,
- B.Xu, A.Zhou, J.W.Zwanziger.
- Comment: the fourth generic paper describing the ABINIT project.
- Note that a version of this paper, that is not formatted for Computer Phys. Comm. 
- is available at https://www.abinit.org/sites/default/files/ABINIT16.pdf .
- The licence allows the authors to put it on the Web.
- DOI and bibtex: see https://docs.abinit.org/theory/bibliography/#gonze2016
 Proc.   0 individual time (sec): cpu=      35051.4  wall=      35052.8

 Calculation completed.
.Delivered   1 WARNINGs and   0 COMMENTs to log file.

--- !FinalSummary
program: abinit
version: 9.2.2
start_datetime: Sun Mar 17 17:56:53 2024
end_datetime: Mon Mar 18 03:41:05 2024
overall_cpu_time:      210310.1
overall_wall_time:      210316.4
exit_requested_by_user: no 
timelimit: 0
pseudos: 
    Sn  : c918e999fc214fef37654f9ff7d5f03d
    Se  : f801923bd422df98a30264e8ccc86374
    Zn  : 80c9b4d1484b64588a366a4998a7c40d
usepaw: 0
mpi_procs: 6
omp_threads: 1
num_warnings: 1
num_comments: 0
...
