
.Version 9.2.2 of ABINIT 
.(MPI version, prepared for a x86_64_linux_gnu9.3 computer) 

.Copyright (C) 1998-2020 ABINIT group . 
 ABINIT comes with ABSOLUTELY NO WARRANTY.
 It is free software, and you are welcome to redistribute it
 under certain conditions (GNU General Public License,
 see ~abinit/COPYING or http://www.gnu.org/copyleft/gpl.txt).

 ABINIT is a project of the Universite Catholique de Louvain,
 Corning Inc. and other collaborators, see ~abinit/doc/developers/contributors.txt .
 Please read https://docs.abinit.org/theory/acknowledgments for suggested
 acknowledgments of the ABINIT effort.
 For more information, see https://www.abinit.org .

.Starting date : Sun 17 Mar 2024.
- ( at 22h36 )
  
- The starting date is more than 3 years after the initial release
- of this version of ABINIT, namely Nov 2020.
- This version of ABINIT is not supported anymore.
- Action: please, switch to a more recent version of ABINIT.
- input  file    -> Cs2TiI6.in
- output file    -> Cs2TiI6.out
- root for input  files -> Cs2TiI6i
- root for output files -> Cs2TiI6o


 DATASET    1 : space group P4 m m (# 99); Bravais tP (primitive tetrag.)
================================================================================
 Values of the parameters that define the memory need for DATASET  1.
     intxc =       0    ionmov =       0      iscf =       7    lmnmax =       6
     lnmax =       6     mgfft =     288  mpssoang =       3    mqgrid =   13909
     natom =      20  nloc_mem =       1    nspden =       1   nspinor =       1
    nsppol =       1      nsym =       8    n1xccc =    2501    ntypat =       3
    occopt =       1   xclevel =       2
-    mband =         159        mffmem =           1         mkmem =           3
       mpw =       20051          nfft =      373248          nkpt =          10
================================================================================
P This job should need less than                     272.473 Mbytes of memory.
  Rough estimation (10% accuracy) of disk space for files :
_ WF disk file :    486.469 Mbytes ; DEN or POT disk file :      2.850 Mbytes.
================================================================================


 DATASET    2 : space group P4 m m (# 99); Bravais tP (primitive tetrag.)
================================================================================
 Values of the parameters that define the memory need for DATASET  2.
     intxc =       0    ionmov =       0      iscf =      -2    lmnmax =       6
     lnmax =       6     mgfft =     288  mpssoang =       3    mqgrid =   13909
     natom =      20  nloc_mem =       1    nspden =       1   nspinor =       1
    nsppol =       1      nsym =       8    n1xccc =    2501    ntypat =       3
    occopt =       1   xclevel =       2
-    mband =         350        mffmem =           1         mkmem =           3
       mpw =       20051          nfft =      373248          nkpt =          10
================================================================================
P This job should need less than                     401.492 Mbytes of memory.
  Rough estimation (10% accuracy) of disk space for files :
_ WF disk file :   1070.841 Mbytes ; DEN or POT disk file :      2.850 Mbytes.
================================================================================


 DATASET    3 : space group P4 m m (# 99); Bravais tP (primitive tetrag.)
================================================================================
 Values of the parameters that define the memory need for DATASET  3.
     intxc =       0    ionmov =       0      iscf =      -2    lmnmax =       6
     lnmax =       6     mgfft =     288  mpssoang =       3    mqgrid =   13909
     natom =      20  nloc_mem =       1    nspden =       1   nspinor =       1
    nsppol =       1      nsym =       8    n1xccc =    2501    ntypat =       3
    occopt =       1   xclevel =       2
-    mband =         350        mffmem =           1         mkmem =          16
       mpw =       20051          nfft =      373248          nkpt =          64
================================================================================
P This job should need less than                    1807.236 Mbytes of memory.
  Rough estimation (10% accuracy) of disk space for files :
_ WF disk file :   6853.371 Mbytes ; DEN or POT disk file :      2.850 Mbytes.
================================================================================


 DATASET    4 : space group P4 m m (# 99); Bravais tP (primitive tetrag.)
================================================================================
 Values of the parameters that define the memory need for DATASET  4 (RF).
     intxc =       0      iscf =      -3    lmnmax =       6     lnmax =       6
     mgfft =     288  mpssoang =       3    mqgrid =   13909     natom =      20
  nloc_mem =       1    nspden =       1   nspinor =       1    nsppol =       1
      nsym =       8    n1xccc =    2501    ntypat =       3    occopt =       1
   xclevel =       2
-    mband =         350        mffmem =           1         mkmem =          16
-   mkqmem =          16        mk1mem =          16           mpw =       20051
      nfft =      373248          nkpt =          64
================================================================================
P This job should need less than                    5364.174 Mbytes of memory.
  Rough estimation (10% accuracy) of disk space for files :
_ WF disk file :  -1338.629 Mbytes ; DEN or POT disk file :      2.850 Mbytes.
================================================================================


 DATASET    5 : space group P4 m m (# 99); Bravais tP (primitive tetrag.)
================================================================================
 Values of the parameters that define the memory need for DATASET  5 (RF).
     intxc =       0      iscf =      -3    lmnmax =       6     lnmax =       6
     mgfft =     288  mpssoang =       3    mqgrid =   13909     natom =      20
  nloc_mem =       1    nspden =       1   nspinor =       1    nsppol =       1
      nsym =       8    n1xccc =    2501    ntypat =       3    occopt =       1
   xclevel =       2
-    mband =         350        mffmem =           1         mkmem =          16
-   mkqmem =          16        mk1mem =          16           mpw =       20051
      nfft =      373248          nkpt =          64
================================================================================
P This job should need less than                    5364.174 Mbytes of memory.
  Rough estimation (10% accuracy) of disk space for files :
_ WF disk file :  -1338.629 Mbytes ; DEN or POT disk file :      2.850 Mbytes.
================================================================================


 DATASET    6 : space group P4 m m (# 99); Bravais tP (primitive tetrag.)
================================================================================
 Values of the parameters that define the memory need for DATASET  6 (RF).
     intxc =       0      iscf =      -3    lmnmax =       6     lnmax =       6
     mgfft =     288  mpssoang =       3    mqgrid =   13909     natom =      20
  nloc_mem =       1    nspden =       1   nspinor =       1    nsppol =       1
      nsym =       8    n1xccc =    2501    ntypat =       3    occopt =       1
   xclevel =       2
-    mband =         350        mffmem =           1         mkmem =          16
-   mkqmem =          16        mk1mem =          16           mpw =       20051
      nfft =      373248          nkpt =          64
================================================================================
P This job should need less than                    5364.174 Mbytes of memory.
  Rough estimation (10% accuracy) of disk space for files :
_ WF disk file :  -1338.629 Mbytes ; DEN or POT disk file :      2.850 Mbytes.
================================================================================

--------------------------------------------------------------------------------
------------- Echo of variables that govern the present computation ------------
--------------------------------------------------------------------------------
-
- outvars: echo of selected default values                                      
-   iomode0 =  0 , fftalg0 =112 , wfoptalg0 =  0
-
- outvars: echo of global parameters not present in the input file              
-  max_nthreads =    0
-
 -outvars: echo values of preprocessed input variables --------
            acell      7.7624316804E+00  7.7624316804E+00  7.7624316804E+00 Bohr
              amu      1.18710000E+02  7.89600000E+01  6.53900000E+01
           diemac      1.20000000E+01
             ecut      2.25000000E+01 Hartree
-          fftalg         112
           getden1          0
           getden2          1
           getden3          1
           getden4          0
           getden5          0
           getden6          0
           getwfk1          0
           getwfk2          1
           getwfk3          2
           getwfk4          3
           getwfk5          3
           getwfk6          3
             iscf1          7
             iscf2         -2
             iscf3         -2
             iscf4         -3
             iscf5         -3
             iscf6         -3
              ixc          11
           jdtset        1    2    3    4    5    6
              kpt1     6.25000000E-02  6.25000000E-02  2.50000000E-01
                       1.87500000E-01  6.25000000E-02  2.50000000E-01
                       3.12500000E-01  6.25000000E-02  2.50000000E-01
                       4.37500000E-01  6.25000000E-02  2.50000000E-01
                       1.87500000E-01  1.87500000E-01  2.50000000E-01
                       3.12500000E-01  1.87500000E-01  2.50000000E-01
                       4.37500000E-01  1.87500000E-01  2.50000000E-01
                       3.12500000E-01  3.12500000E-01  2.50000000E-01
                       4.37500000E-01  3.12500000E-01  2.50000000E-01
                       4.37500000E-01  4.37500000E-01  2.50000000E-01
              kpt2     6.25000000E-02  6.25000000E-02  2.50000000E-01
                       1.87500000E-01  6.25000000E-02  2.50000000E-01
                       3.12500000E-01  6.25000000E-02  2.50000000E-01
                       4.37500000E-01  6.25000000E-02  2.50000000E-01
                       1.87500000E-01  1.87500000E-01  2.50000000E-01
                       3.12500000E-01  1.87500000E-01  2.50000000E-01
                       4.37500000E-01  1.87500000E-01  2.50000000E-01
                       3.12500000E-01  3.12500000E-01  2.50000000E-01
                       4.37500000E-01  3.12500000E-01  2.50000000E-01
                       4.37500000E-01  4.37500000E-01  2.50000000E-01
              kpt3     6.25000000E-02  6.25000000E-02  2.50000000E-01
                       1.87500000E-01  6.25000000E-02  2.50000000E-01
                       3.12500000E-01  6.25000000E-02  2.50000000E-01
                       4.37500000E-01  6.25000000E-02  2.50000000E-01
                      -4.37500000E-01  6.25000000E-02  2.50000000E-01
                      -3.12500000E-01  6.25000000E-02  2.50000000E-01
                      -1.87500000E-01  6.25000000E-02  2.50000000E-01
                      -6.25000000E-02  6.25000000E-02  2.50000000E-01
                       6.25000000E-02  1.87500000E-01  2.50000000E-01
                       1.87500000E-01  1.87500000E-01  2.50000000E-01
                       3.12500000E-01  1.87500000E-01  2.50000000E-01
                       4.37500000E-01  1.87500000E-01  2.50000000E-01
                      -4.37500000E-01  1.87500000E-01  2.50000000E-01
                      -3.12500000E-01  1.87500000E-01  2.50000000E-01
                      -1.87500000E-01  1.87500000E-01  2.50000000E-01
                      -6.25000000E-02  1.87500000E-01  2.50000000E-01
                       6.25000000E-02  3.12500000E-01  2.50000000E-01
                       1.87500000E-01  3.12500000E-01  2.50000000E-01
                       3.12500000E-01  3.12500000E-01  2.50000000E-01
                       4.37500000E-01  3.12500000E-01  2.50000000E-01
                      -4.37500000E-01  3.12500000E-01  2.50000000E-01
                      -3.12500000E-01  3.12500000E-01  2.50000000E-01
                      -1.87500000E-01  3.12500000E-01  2.50000000E-01
                      -6.25000000E-02  3.12500000E-01  2.50000000E-01
                       6.25000000E-02  4.37500000E-01  2.50000000E-01
                       1.87500000E-01  4.37500000E-01  2.50000000E-01
                       3.12500000E-01  4.37500000E-01  2.50000000E-01
                       4.37500000E-01  4.37500000E-01  2.50000000E-01
                      -4.37500000E-01  4.37500000E-01  2.50000000E-01
                      -3.12500000E-01  4.37500000E-01  2.50000000E-01
                      -1.87500000E-01  4.37500000E-01  2.50000000E-01
                      -6.25000000E-02  4.37500000E-01  2.50000000E-01
                       6.25000000E-02 -4.37500000E-01  2.50000000E-01
                       1.87500000E-01 -4.37500000E-01  2.50000000E-01
                       3.12500000E-01 -4.37500000E-01  2.50000000E-01
                       4.37500000E-01 -4.37500000E-01  2.50000000E-01
                      -4.37500000E-01 -4.37500000E-01  2.50000000E-01
                      -3.12500000E-01 -4.37500000E-01  2.50000000E-01
                      -1.87500000E-01 -4.37500000E-01  2.50000000E-01
                      -6.25000000E-02 -4.37500000E-01  2.50000000E-01
                       6.25000000E-02 -3.12500000E-01  2.50000000E-01
                       1.87500000E-01 -3.12500000E-01  2.50000000E-01
                       3.12500000E-01 -3.12500000E-01  2.50000000E-01
                       4.37500000E-01 -3.12500000E-01  2.50000000E-01
                      -4.37500000E-01 -3.12500000E-01  2.50000000E-01
                      -3.12500000E-01 -3.12500000E-01  2.50000000E-01
                      -1.87500000E-01 -3.12500000E-01  2.50000000E-01
                      -6.25000000E-02 -3.12500000E-01  2.50000000E-01
                       6.25000000E-02 -1.87500000E-01  2.50000000E-01
                       1.87500000E-01 -1.87500000E-01  2.50000000E-01
              kpt4     6.25000000E-02  6.25000000E-02  2.50000000E-01
                       1.87500000E-01  6.25000000E-02  2.50000000E-01
                       3.12500000E-01  6.25000000E-02  2.50000000E-01
                       4.37500000E-01  6.25000000E-02  2.50000000E-01
                      -4.37500000E-01  6.25000000E-02  2.50000000E-01
                      -3.12500000E-01  6.25000000E-02  2.50000000E-01
                      -1.87500000E-01  6.25000000E-02  2.50000000E-01
                      -6.25000000E-02  6.25000000E-02  2.50000000E-01
                       6.25000000E-02  1.87500000E-01  2.50000000E-01
                       1.87500000E-01  1.87500000E-01  2.50000000E-01
                       3.12500000E-01  1.87500000E-01  2.50000000E-01
                       4.37500000E-01  1.87500000E-01  2.50000000E-01
                      -4.37500000E-01  1.87500000E-01  2.50000000E-01
                      -3.12500000E-01  1.87500000E-01  2.50000000E-01
                      -1.87500000E-01  1.87500000E-01  2.50000000E-01
                      -6.25000000E-02  1.87500000E-01  2.50000000E-01
                       6.25000000E-02  3.12500000E-01  2.50000000E-01
                       1.87500000E-01  3.12500000E-01  2.50000000E-01
                       3.12500000E-01  3.12500000E-01  2.50000000E-01
                       4.37500000E-01  3.12500000E-01  2.50000000E-01
                      -4.37500000E-01  3.12500000E-01  2.50000000E-01
                      -3.12500000E-01  3.12500000E-01  2.50000000E-01
                      -1.87500000E-01  3.12500000E-01  2.50000000E-01
                      -6.25000000E-02  3.12500000E-01  2.50000000E-01
                       6.25000000E-02  4.37500000E-01  2.50000000E-01
                       1.87500000E-01  4.37500000E-01  2.50000000E-01
                       3.12500000E-01  4.37500000E-01  2.50000000E-01
                       4.37500000E-01  4.37500000E-01  2.50000000E-01
                      -4.37500000E-01  4.37500000E-01  2.50000000E-01
                      -3.12500000E-01  4.37500000E-01  2.50000000E-01
                      -1.87500000E-01  4.37500000E-01  2.50000000E-01
                      -6.25000000E-02  4.37500000E-01  2.50000000E-01
                       6.25000000E-02 -4.37500000E-01  2.50000000E-01
                       1.87500000E-01 -4.37500000E-01  2.50000000E-01
                       3.12500000E-01 -4.37500000E-01  2.50000000E-01
                       4.37500000E-01 -4.37500000E-01  2.50000000E-01
                      -4.37500000E-01 -4.37500000E-01  2.50000000E-01
                      -3.12500000E-01 -4.37500000E-01  2.50000000E-01
                      -1.87500000E-01 -4.37500000E-01  2.50000000E-01
                      -6.25000000E-02 -4.37500000E-01  2.50000000E-01
                       6.25000000E-02 -3.12500000E-01  2.50000000E-01
                       1.87500000E-01 -3.12500000E-01  2.50000000E-01
                       3.12500000E-01 -3.12500000E-01  2.50000000E-01
                       4.37500000E-01 -3.12500000E-01  2.50000000E-01
                      -4.37500000E-01 -3.12500000E-01  2.50000000E-01
                      -3.12500000E-01 -3.12500000E-01  2.50000000E-01
                      -1.87500000E-01 -3.12500000E-01  2.50000000E-01
                      -6.25000000E-02 -3.12500000E-01  2.50000000E-01
                       6.25000000E-02 -1.87500000E-01  2.50000000E-01
                       1.87500000E-01 -1.87500000E-01  2.50000000E-01
              kpt5     6.25000000E-02  6.25000000E-02  2.50000000E-01
                       1.87500000E-01  6.25000000E-02  2.50000000E-01
                       3.12500000E-01  6.25000000E-02  2.50000000E-01
                       4.37500000E-01  6.25000000E-02  2.50000000E-01
                      -4.37500000E-01  6.25000000E-02  2.50000000E-01
                      -3.12500000E-01  6.25000000E-02  2.50000000E-01
                      -1.87500000E-01  6.25000000E-02  2.50000000E-01
                      -6.25000000E-02  6.25000000E-02  2.50000000E-01
                       6.25000000E-02  1.87500000E-01  2.50000000E-01
                       1.87500000E-01  1.87500000E-01  2.50000000E-01
                       3.12500000E-01  1.87500000E-01  2.50000000E-01
                       4.37500000E-01  1.87500000E-01  2.50000000E-01
                      -4.37500000E-01  1.87500000E-01  2.50000000E-01
                      -3.12500000E-01  1.87500000E-01  2.50000000E-01
                      -1.87500000E-01  1.87500000E-01  2.50000000E-01
                      -6.25000000E-02  1.87500000E-01  2.50000000E-01
                       6.25000000E-02  3.12500000E-01  2.50000000E-01
                       1.87500000E-01  3.12500000E-01  2.50000000E-01
                       3.12500000E-01  3.12500000E-01  2.50000000E-01
                       4.37500000E-01  3.12500000E-01  2.50000000E-01
                      -4.37500000E-01  3.12500000E-01  2.50000000E-01
                      -3.12500000E-01  3.12500000E-01  2.50000000E-01
                      -1.87500000E-01  3.12500000E-01  2.50000000E-01
                      -6.25000000E-02  3.12500000E-01  2.50000000E-01
                       6.25000000E-02  4.37500000E-01  2.50000000E-01
                       1.87500000E-01  4.37500000E-01  2.50000000E-01
                       3.12500000E-01  4.37500000E-01  2.50000000E-01
                       4.37500000E-01  4.37500000E-01  2.50000000E-01
                      -4.37500000E-01  4.37500000E-01  2.50000000E-01
                      -3.12500000E-01  4.37500000E-01  2.50000000E-01
                      -1.87500000E-01  4.37500000E-01  2.50000000E-01
                      -6.25000000E-02  4.37500000E-01  2.50000000E-01
                       6.25000000E-02 -4.37500000E-01  2.50000000E-01
                       1.87500000E-01 -4.37500000E-01  2.50000000E-01
                       3.12500000E-01 -4.37500000E-01  2.50000000E-01
                       4.37500000E-01 -4.37500000E-01  2.50000000E-01
                      -4.37500000E-01 -4.37500000E-01  2.50000000E-01
                      -3.12500000E-01 -4.37500000E-01  2.50000000E-01
                      -1.87500000E-01 -4.37500000E-01  2.50000000E-01
                      -6.25000000E-02 -4.37500000E-01  2.50000000E-01
                       6.25000000E-02 -3.12500000E-01  2.50000000E-01
                       1.87500000E-01 -3.12500000E-01  2.50000000E-01
                       3.12500000E-01 -3.12500000E-01  2.50000000E-01
                       4.37500000E-01 -3.12500000E-01  2.50000000E-01
                      -4.37500000E-01 -3.12500000E-01  2.50000000E-01
                      -3.12500000E-01 -3.12500000E-01  2.50000000E-01
                      -1.87500000E-01 -3.12500000E-01  2.50000000E-01
                      -6.25000000E-02 -3.12500000E-01  2.50000000E-01
                       6.25000000E-02 -1.87500000E-01  2.50000000E-01
                       1.87500000E-01 -1.87500000E-01  2.50000000E-01
              kpt6     6.25000000E-02  6.25000000E-02  2.50000000E-01
                       1.87500000E-01  6.25000000E-02  2.50000000E-01
                       3.12500000E-01  6.25000000E-02  2.50000000E-01
                       4.37500000E-01  6.25000000E-02  2.50000000E-01
                      -4.37500000E-01  6.25000000E-02  2.50000000E-01
                      -3.12500000E-01  6.25000000E-02  2.50000000E-01
                      -1.87500000E-01  6.25000000E-02  2.50000000E-01
                      -6.25000000E-02  6.25000000E-02  2.50000000E-01
                       6.25000000E-02  1.87500000E-01  2.50000000E-01
                       1.87500000E-01  1.87500000E-01  2.50000000E-01
                       3.12500000E-01  1.87500000E-01  2.50000000E-01
                       4.37500000E-01  1.87500000E-01  2.50000000E-01
                      -4.37500000E-01  1.87500000E-01  2.50000000E-01
                      -3.12500000E-01  1.87500000E-01  2.50000000E-01
                      -1.87500000E-01  1.87500000E-01  2.50000000E-01
                      -6.25000000E-02  1.87500000E-01  2.50000000E-01
                       6.25000000E-02  3.12500000E-01  2.50000000E-01
                       1.87500000E-01  3.12500000E-01  2.50000000E-01
                       3.12500000E-01  3.12500000E-01  2.50000000E-01
                       4.37500000E-01  3.12500000E-01  2.50000000E-01
                      -4.37500000E-01  3.12500000E-01  2.50000000E-01
                      -3.12500000E-01  3.12500000E-01  2.50000000E-01
                      -1.87500000E-01  3.12500000E-01  2.50000000E-01
                      -6.25000000E-02  3.12500000E-01  2.50000000E-01
                       6.25000000E-02  4.37500000E-01  2.50000000E-01
                       1.87500000E-01  4.37500000E-01  2.50000000E-01
                       3.12500000E-01  4.37500000E-01  2.50000000E-01
                       4.37500000E-01  4.37500000E-01  2.50000000E-01
                      -4.37500000E-01  4.37500000E-01  2.50000000E-01
                      -3.12500000E-01  4.37500000E-01  2.50000000E-01
                      -1.87500000E-01  4.37500000E-01  2.50000000E-01
                      -6.25000000E-02  4.37500000E-01  2.50000000E-01
                       6.25000000E-02 -4.37500000E-01  2.50000000E-01
                       1.87500000E-01 -4.37500000E-01  2.50000000E-01
                       3.12500000E-01 -4.37500000E-01  2.50000000E-01
                       4.37500000E-01 -4.37500000E-01  2.50000000E-01
                      -4.37500000E-01 -4.37500000E-01  2.50000000E-01
                      -3.12500000E-01 -4.37500000E-01  2.50000000E-01
                      -1.87500000E-01 -4.37500000E-01  2.50000000E-01
                      -6.25000000E-02 -4.37500000E-01  2.50000000E-01
                       6.25000000E-02 -3.12500000E-01  2.50000000E-01
                       1.87500000E-01 -3.12500000E-01  2.50000000E-01
                       3.12500000E-01 -3.12500000E-01  2.50000000E-01
                       4.37500000E-01 -3.12500000E-01  2.50000000E-01
                      -4.37500000E-01 -3.12500000E-01  2.50000000E-01
                      -3.12500000E-01 -3.12500000E-01  2.50000000E-01
                      -1.87500000E-01 -3.12500000E-01  2.50000000E-01
                      -6.25000000E-02 -3.12500000E-01  2.50000000E-01
                       6.25000000E-02 -1.87500000E-01  2.50000000E-01
                       1.87500000E-01 -1.87500000E-01  2.50000000E-01
                       outvar_i_n : Printing only first  50 k-points.
           kptopt1          1
           kptopt2          1
           kptopt3          2
           kptopt4          2
           kptopt5          2
           kptopt6          2
         kptrlatt        8    0    0      0    8    0      0    0    2
          kptrlen      6.20994534E+01
P           mkmem1          3
P           mkmem2          3
P           mkmem3         16
P           mkmem4         16
P           mkmem5         16
P           mkmem6         16
P          mkqmem1          3
P          mkqmem2          3
P          mkqmem3         16
P          mkqmem4         16
P          mkqmem5         16
P          mkqmem6         16
P          mk1mem1          3
P          mk1mem2          3
P          mk1mem3         16
P          mk1mem4         16
P          mk1mem5         16
P          mk1mem6         16
            natom          20
            nband1        159
            nband2        350
            nband3        350
            nband4        350
            nband5        350
            nband6        350
           nbdbuf1          0
           nbdbuf2          2
           nbdbuf3          2
           nbdbuf4          2
           nbdbuf5          2
           nbdbuf6          2
           ndtset           6
            ngfft          36      36     288
             nkpt1         10
             nkpt2         10
             nkpt3         64
             nkpt4         64
             nkpt5         64
             nkpt6         64
            nline1          4
            nline2          4
            nline3          4
            nline4          0
            nline5          0
            nline6          0
             nqpt1          0
             nqpt2          0
             nqpt3          0
             nqpt4          1
             nqpt5          1
             nqpt6          1
            nstep1        400
            nstep2        200
            nstep3        200
            nstep4          1
            nstep5          1
            nstep6          1
             nsym           8
           ntypat           3
              occ1     2.000000  2.000000  2.000000  2.000000  2.000000  2.000000
                       2.000000  2.000000  2.000000  2.000000  2.000000  2.000000
                       2.000000  2.000000  2.000000  2.000000  2.000000  2.000000
                       2.000000  2.000000  2.000000  2.000000  2.000000  2.000000
                       2.000000  2.000000  2.000000  2.000000  2.000000  2.000000
                       2.000000  2.000000  2.000000  2.000000  2.000000  2.000000
                       2.000000  2.000000  2.000000  2.000000  2.000000  2.000000
                       2.000000  2.000000  2.000000  2.000000  2.000000  2.000000
                       2.000000  2.000000  2.000000  2.000000  2.000000  2.000000
                       2.000000  2.000000  2.000000  2.000000  2.000000  2.000000
                       2.000000  2.000000  2.000000  2.000000  2.000000  2.000000
                       2.000000  2.000000  2.000000  2.000000  2.000000  2.000000
                       2.000000  2.000000  2.000000  2.000000  2.000000  2.000000
                       2.000000  2.000000  2.000000  2.000000  2.000000  2.000000
                       2.000000  2.000000  2.000000  2.000000  2.000000  2.000000
                       2.000000  2.000000  2.000000  2.000000  2.000000  2.000000
                       2.000000  2.000000  2.000000  2.000000  2.000000  2.000000
                       2.000000  2.000000  2.000000  2.000000  2.000000  2.000000
                       2.000000  2.000000  2.000000  2.000000  2.000000  2.000000
                       2.000000  2.000000  2.000000  2.000000  2.000000  2.000000
                       2.000000  2.000000  2.000000  2.000000  2.000000  2.000000
                       2.000000  2.000000  2.000000  2.000000  2.000000  2.000000
                       2.000000  2.000000  2.000000  2.000000  2.000000  2.000000
                       2.000000  2.000000  2.000000  2.000000  2.000000  2.000000
                       2.000000  2.000000  2.000000  2.000000  2.000000  2.000000
                       2.000000  2.000000  2.000000  2.000000  2.000000  2.000000
                       0.000000  0.000000  0.000000
              occ4     2.000000  2.000000  2.000000  2.000000  2.000000  2.000000
                       2.000000  2.000000  2.000000  2.000000  2.000000  2.000000
                       2.000000  2.000000  2.000000  2.000000  2.000000  2.000000
                       2.000000  2.000000  2.000000  2.000000  2.000000  2.000000
                       2.000000  2.000000  2.000000  2.000000  2.000000  2.000000
                       2.000000  2.000000  2.000000  2.000000  2.000000  2.000000
                       2.000000  2.000000  2.000000  2.000000  2.000000  2.000000
                       2.000000  2.000000  2.000000  2.000000  2.000000  2.000000
                       2.000000  2.000000  2.000000  2.000000  2.000000  2.000000
                       2.000000  2.000000  2.000000  2.000000  2.000000  2.000000
                       2.000000  2.000000  2.000000  2.000000  2.000000  2.000000
                       2.000000  2.000000  2.000000  2.000000  2.000000  2.000000
                       2.000000  2.000000  2.000000  2.000000  2.000000  2.000000
                       2.000000  2.000000  2.000000  2.000000  2.000000  2.000000
                       2.000000  2.000000  2.000000  2.000000  2.000000  2.000000
                       2.000000  2.000000  2.000000  2.000000  2.000000  2.000000
                       2.000000  2.000000  2.000000  2.000000  2.000000  2.000000
                       2.000000  2.000000  2.000000  2.000000  2.000000  2.000000
                       2.000000  2.000000  2.000000  2.000000  2.000000  2.000000
                       2.000000  2.000000  2.000000  2.000000  2.000000  2.000000
                       2.000000  2.000000  2.000000  2.000000  2.000000  2.000000
                       2.000000  2.000000  2.000000  2.000000  2.000000  2.000000
                       2.000000  2.000000  2.000000  2.000000  2.000000  2.000000
                       2.000000  2.000000  2.000000  2.000000  2.000000  2.000000
                       2.000000  2.000000  2.000000  2.000000  2.000000  2.000000
                       2.000000  2.000000  2.000000  2.000000  2.000000  2.000000
                       0.000000  0.000000  0.000000  0.000000  0.000000  0.000000
                       0.000000  0.000000  0.000000  0.000000  0.000000  0.000000
                       0.000000  0.000000  0.000000  0.000000  0.000000  0.000000
                       0.000000  0.000000  0.000000  0.000000  0.000000  0.000000
                       0.000000  0.000000  0.000000  0.000000  0.000000  0.000000
                       0.000000  0.000000  0.000000  0.000000  0.000000  0.000000
                       0.000000  0.000000  0.000000  0.000000  0.000000  0.000000
                       0.000000  0.000000  0.000000  0.000000  0.000000  0.000000
                       0.000000  0.000000  0.000000  0.000000  0.000000  0.000000
                       0.000000  0.000000  0.000000  0.000000  0.000000  0.000000
                       0.000000  0.000000  0.000000  0.000000  0.000000  0.000000
                       0.000000  0.000000  0.000000  0.000000  0.000000  0.000000
                       0.000000  0.000000  0.000000  0.000000  0.000000  0.000000
                       0.000000  0.000000  0.000000  0.000000  0.000000  0.000000
                       0.000000  0.000000  0.000000  0.000000  0.000000  0.000000
                       0.000000  0.000000  0.000000  0.000000  0.000000  0.000000
                       0.000000  0.000000  0.000000  0.000000  0.000000  0.000000
                       0.000000  0.000000  0.000000  0.000000  0.000000  0.000000
                       0.000000  0.000000  0.000000  0.000000  0.000000  0.000000
                       0.000000  0.000000  0.000000  0.000000  0.000000  0.000000
                       0.000000  0.000000  0.000000  0.000000  0.000000  0.000000
                       0.000000  0.000000  0.000000  0.000000  0.000000  0.000000
                       0.000000  0.000000  0.000000  0.000000  0.000000  0.000000
                       0.000000  0.000000  0.000000  0.000000  0.000000  0.000000
                       0.000000  0.000000  0.000000  0.000000  0.000000  0.000000
                       0.000000  0.000000  0.000000  0.000000  0.000000  0.000000
                       0.000000  0.000000  0.000000  0.000000  0.000000  0.000000
                       0.000000  0.000000  0.000000  0.000000  0.000000  0.000000
                       0.000000  0.000000  0.000000  0.000000  0.000000  0.000000
                       0.000000  0.000000  0.000000  0.000000  0.000000  0.000000
                       0.000000  0.000000  0.000000  0.000000  0.000000  0.000000
                       0.000000  0.000000  0.000000  0.000000  0.000000  0.000000
                       0.000000  0.000000
              occ5     2.000000  2.000000  2.000000  2.000000  2.000000  2.000000
                       2.000000  2.000000  2.000000  2.000000  2.000000  2.000000
                       2.000000  2.000000  2.000000  2.000000  2.000000  2.000000
                       2.000000  2.000000  2.000000  2.000000  2.000000  2.000000
                       2.000000  2.000000  2.000000  2.000000  2.000000  2.000000
                       2.000000  2.000000  2.000000  2.000000  2.000000  2.000000
                       2.000000  2.000000  2.000000  2.000000  2.000000  2.000000
                       2.000000  2.000000  2.000000  2.000000  2.000000  2.000000
                       2.000000  2.000000  2.000000  2.000000  2.000000  2.000000
                       2.000000  2.000000  2.000000  2.000000  2.000000  2.000000
                       2.000000  2.000000  2.000000  2.000000  2.000000  2.000000
                       2.000000  2.000000  2.000000  2.000000  2.000000  2.000000
                       2.000000  2.000000  2.000000  2.000000  2.000000  2.000000
                       2.000000  2.000000  2.000000  2.000000  2.000000  2.000000
                       2.000000  2.000000  2.000000  2.000000  2.000000  2.000000
                       2.000000  2.000000  2.000000  2.000000  2.000000  2.000000
                       2.000000  2.000000  2.000000  2.000000  2.000000  2.000000
                       2.000000  2.000000  2.000000  2.000000  2.000000  2.000000
                       2.000000  2.000000  2.000000  2.000000  2.000000  2.000000
                       2.000000  2.000000  2.000000  2.000000  2.000000  2.000000
                       2.000000  2.000000  2.000000  2.000000  2.000000  2.000000
                       2.000000  2.000000  2.000000  2.000000  2.000000  2.000000
                       2.000000  2.000000  2.000000  2.000000  2.000000  2.000000
                       2.000000  2.000000  2.000000  2.000000  2.000000  2.000000
                       2.000000  2.000000  2.000000  2.000000  2.000000  2.000000
                       2.000000  2.000000  2.000000  2.000000  2.000000  2.000000
                       0.000000  0.000000  0.000000  0.000000  0.000000  0.000000
                       0.000000  0.000000  0.000000  0.000000  0.000000  0.000000
                       0.000000  0.000000  0.000000  0.000000  0.000000  0.000000
                       0.000000  0.000000  0.000000  0.000000  0.000000  0.000000
                       0.000000  0.000000  0.000000  0.000000  0.000000  0.000000
                       0.000000  0.000000  0.000000  0.000000  0.000000  0.000000
                       0.000000  0.000000  0.000000  0.000000  0.000000  0.000000
                       0.000000  0.000000  0.000000  0.000000  0.000000  0.000000
                       0.000000  0.000000  0.000000  0.000000  0.000000  0.000000
                       0.000000  0.000000  0.000000  0.000000  0.000000  0.000000
                       0.000000  0.000000  0.000000  0.000000  0.000000  0.000000
                       0.000000  0.000000  0.000000  0.000000  0.000000  0.000000
                       0.000000  0.000000  0.000000  0.000000  0.000000  0.000000
                       0.000000  0.000000  0.000000  0.000000  0.000000  0.000000
                       0.000000  0.000000  0.000000  0.000000  0.000000  0.000000
                       0.000000  0.000000  0.000000  0.000000  0.000000  0.000000
                       0.000000  0.000000  0.000000  0.000000  0.000000  0.000000
                       0.000000  0.000000  0.000000  0.000000  0.000000  0.000000
                       0.000000  0.000000  0.000000  0.000000  0.000000  0.000000
                       0.000000  0.000000  0.000000  0.000000  0.000000  0.000000
                       0.000000  0.000000  0.000000  0.000000  0.000000  0.000000
                       0.000000  0.000000  0.000000  0.000000  0.000000  0.000000
                       0.000000  0.000000  0.000000  0.000000  0.000000  0.000000
                       0.000000  0.000000  0.000000  0.000000  0.000000  0.000000
                       0.000000  0.000000  0.000000  0.000000  0.000000  0.000000
                       0.000000  0.000000  0.000000  0.000000  0.000000  0.000000
                       0.000000  0.000000  0.000000  0.000000  0.000000  0.000000
                       0.000000  0.000000  0.000000  0.000000  0.000000  0.000000
                       0.000000  0.000000  0.000000  0.000000  0.000000  0.000000
                       0.000000  0.000000  0.000000  0.000000  0.000000  0.000000
                       0.000000  0.000000  0.000000  0.000000  0.000000  0.000000
                       0.000000  0.000000  0.000000  0.000000  0.000000  0.000000
                       0.000000  0.000000
              occ6     2.000000  2.000000  2.000000  2.000000  2.000000  2.000000
                       2.000000  2.000000  2.000000  2.000000  2.000000  2.000000
                       2.000000  2.000000  2.000000  2.000000  2.000000  2.000000
                       2.000000  2.000000  2.000000  2.000000  2.000000  2.000000
                       2.000000  2.000000  2.000000  2.000000  2.000000  2.000000
                       2.000000  2.000000  2.000000  2.000000  2.000000  2.000000
                       2.000000  2.000000  2.000000  2.000000  2.000000  2.000000
                       2.000000  2.000000  2.000000  2.000000  2.000000  2.000000
                       2.000000  2.000000  2.000000  2.000000  2.000000  2.000000
                       2.000000  2.000000  2.000000  2.000000  2.000000  2.000000
                       2.000000  2.000000  2.000000  2.000000  2.000000  2.000000
                       2.000000  2.000000  2.000000  2.000000  2.000000  2.000000
                       2.000000  2.000000  2.000000  2.000000  2.000000  2.000000
                       2.000000  2.000000  2.000000  2.000000  2.000000  2.000000
                       2.000000  2.000000  2.000000  2.000000  2.000000  2.000000
                       2.000000  2.000000  2.000000  2.000000  2.000000  2.000000
                       2.000000  2.000000  2.000000  2.000000  2.000000  2.000000
                       2.000000  2.000000  2.000000  2.000000  2.000000  2.000000
                       2.000000  2.000000  2.000000  2.000000  2.000000  2.000000
                       2.000000  2.000000  2.000000  2.000000  2.000000  2.000000
                       2.000000  2.000000  2.000000  2.000000  2.000000  2.000000
                       2.000000  2.000000  2.000000  2.000000  2.000000  2.000000
                       2.000000  2.000000  2.000000  2.000000  2.000000  2.000000
                       2.000000  2.000000  2.000000  2.000000  2.000000  2.000000
                       2.000000  2.000000  2.000000  2.000000  2.000000  2.000000
                       2.000000  2.000000  2.000000  2.000000  2.000000  2.000000
                       0.000000  0.000000  0.000000  0.000000  0.000000  0.000000
                       0.000000  0.000000  0.000000  0.000000  0.000000  0.000000
                       0.000000  0.000000  0.000000  0.000000  0.000000  0.000000
                       0.000000  0.000000  0.000000  0.000000  0.000000  0.000000
                       0.000000  0.000000  0.000000  0.000000  0.000000  0.000000
                       0.000000  0.000000  0.000000  0.000000  0.000000  0.000000
                       0.000000  0.000000  0.000000  0.000000  0.000000  0.000000
                       0.000000  0.000000  0.000000  0.000000  0.000000  0.000000
                       0.000000  0.000000  0.000000  0.000000  0.000000  0.000000
                       0.000000  0.000000  0.000000  0.000000  0.000000  0.000000
                       0.000000  0.000000  0.000000  0.000000  0.000000  0.000000
                       0.000000  0.000000  0.000000  0.000000  0.000000  0.000000
                       0.000000  0.000000  0.000000  0.000000  0.000000  0.000000
                       0.000000  0.000000  0.000000  0.000000  0.000000  0.000000
                       0.000000  0.000000  0.000000  0.000000  0.000000  0.000000
                       0.000000  0.000000  0.000000  0.000000  0.000000  0.000000
                       0.000000  0.000000  0.000000  0.000000  0.000000  0.000000
                       0.000000  0.000000  0.000000  0.000000  0.000000  0.000000
                       0.000000  0.000000  0.000000  0.000000  0.000000  0.000000
                       0.000000  0.000000  0.000000  0.000000  0.000000  0.000000
                       0.000000  0.000000  0.000000  0.000000  0.000000  0.000000
                       0.000000  0.000000  0.000000  0.000000  0.000000  0.000000
                       0.000000  0.000000  0.000000  0.000000  0.000000  0.000000
                       0.000000  0.000000  0.000000  0.000000  0.000000  0.000000
                       0.000000  0.000000  0.000000  0.000000  0.000000  0.000000
                       0.000000  0.000000  0.000000  0.000000  0.000000  0.000000
                       0.000000  0.000000  0.000000  0.000000  0.000000  0.000000
                       0.000000  0.000000  0.000000  0.000000  0.000000  0.000000
                       0.000000  0.000000  0.000000  0.000000  0.000000  0.000000
                       0.000000  0.000000  0.000000  0.000000  0.000000  0.000000
                       0.000000  0.000000  0.000000  0.000000  0.000000  0.000000
                       0.000000  0.000000  0.000000  0.000000  0.000000  0.000000
                       0.000000  0.000000
        optdriver1          0
        optdriver2          0
        optdriver3          0
        optdriver4          1
        optdriver5          1
        optdriver6          1
            prtwf1          1
            prtwf2          1
            prtwf3          1
            prtwf4          3
            prtwf5          3
            prtwf6          3
            rfdir1          0       0       0
            rfdir2          0       0       0
            rfdir3          0       0       0
            rfdir4          1       0       0
            rfdir5          0       1       0
            rfdir6          0       0       1
           rfelfd1          0
           rfelfd2          0
           rfelfd3          0
           rfelfd4          2
           rfelfd5          2
           rfelfd6          2
            rprim      1.0000000000E+00  0.0000000000E+00  0.0000000000E+00
                       0.0000000000E+00  1.0000000000E+00  0.0000000000E+00
                       1.0000000000E-15  1.0000000000E-15  8.3913010243E+00
           shiftk      5.00000000E-01  5.00000000E-01  5.00000000E-01
          spgroup          99
           symrel      1  0  0   0  1  0   0  0  1       1  0  0   0 -1  0   0  0  1
                      -1  0  0   0 -1  0   0  0  1      -1  0  0   0  1  0   0  0  1
                       0  1  0   1  0  0   0  0  1       0  1  0  -1  0  0   0  0  1
                       0 -1  0  -1  0  0   0  0  1       0 -1  0   1  0  0   0  0  1
            tnons      0.0000000  0.0000000  0.0000000     0.0000000 -0.0000000  0.0000000
                      -0.0000000 -0.0000000  0.0000000    -0.0000000  0.0000000  0.0000000
                       0.5000000  0.5000000  0.0000000     0.5000000  0.5000000  0.0000000
                       0.5000000  0.5000000  0.0000000     0.5000000  0.5000000  0.0000000
           tolwfr      1.00000000E-20
            typat      1  1  1  1  1  1  1  1  2  2  2  2  2  2  2  2  2  2  3  3
           vdw_xc           5
              wtk1       0.06250    0.12500    0.12500    0.12500    0.06250    0.12500
                         0.12500    0.06250    0.12500    0.06250
              wtk2       0.06250    0.12500    0.12500    0.12500    0.06250    0.12500
                         0.12500    0.06250    0.12500    0.06250
              wtk3       0.01563    0.01563    0.01563    0.01563    0.01563    0.01563
                         0.01563    0.01563    0.01563    0.01563    0.01563    0.01563
                         0.01563    0.01563    0.01563    0.01563    0.01563    0.01563
                         0.01563    0.01563    0.01563    0.01563    0.01563    0.01563
                         0.01563    0.01563    0.01563    0.01563    0.01563    0.01563
                         0.01563    0.01563    0.01563    0.01563    0.01563    0.01563
                         0.01563    0.01563    0.01563    0.01563    0.01563    0.01563
                         0.01563    0.01563    0.01563    0.01563    0.01563    0.01563
                         0.01563    0.01563
              wtk4       0.01563    0.01563    0.01563    0.01563    0.01563    0.01563
                         0.01563    0.01563    0.01563    0.01563    0.01563    0.01563
                         0.01563    0.01563    0.01563    0.01563    0.01563    0.01563
                         0.01563    0.01563    0.01563    0.01563    0.01563    0.01563
                         0.01563    0.01563    0.01563    0.01563    0.01563    0.01563
                         0.01563    0.01563    0.01563    0.01563    0.01563    0.01563
                         0.01563    0.01563    0.01563    0.01563    0.01563    0.01563
                         0.01563    0.01563    0.01563    0.01563    0.01563    0.01563
                         0.01563    0.01563
              wtk5       0.01563    0.01563    0.01563    0.01563    0.01563    0.01563
                         0.01563    0.01563    0.01563    0.01563    0.01563    0.01563
                         0.01563    0.01563    0.01563    0.01563    0.01563    0.01563
                         0.01563    0.01563    0.01563    0.01563    0.01563    0.01563
                         0.01563    0.01563    0.01563    0.01563    0.01563    0.01563
                         0.01563    0.01563    0.01563    0.01563    0.01563    0.01563
                         0.01563    0.01563    0.01563    0.01563    0.01563    0.01563
                         0.01563    0.01563    0.01563    0.01563    0.01563    0.01563
                         0.01563    0.01563
              wtk6       0.01563    0.01563    0.01563    0.01563    0.01563    0.01563
                         0.01563    0.01563    0.01563    0.01563    0.01563    0.01563
                         0.01563    0.01563    0.01563    0.01563    0.01563    0.01563
                         0.01563    0.01563    0.01563    0.01563    0.01563    0.01563
                         0.01563    0.01563    0.01563    0.01563    0.01563    0.01563
                         0.01563    0.01563    0.01563    0.01563    0.01563    0.01563
                         0.01563    0.01563    0.01563    0.01563    0.01563    0.01563
                         0.01563    0.01563    0.01563    0.01563    0.01563    0.01563
                         0.01563    0.01563
                       outvars : Printing only first  50 k-points.
           xangst      2.0538509643E+00  5.5610890249E-16  4.6664772030E+00
                       8.8378439303E-16  2.0538509643E+00  7.4161008824E+00
                       2.0538509643E+00  1.2038893889E-15  1.0102198262E+01
                       1.5315648795E-15  2.0538509643E+00  1.2851821942E+01
                       2.0538509643E+00  1.8516698753E-15  1.5537919322E+01
                       2.1793453659E-15  2.0538509643E+00  1.8287543001E+01
                       2.0538509643E+00  2.4994503618E-15  2.0973640381E+01
                       2.8271299600E-15  2.0538509643E+00  2.3723298529E+01
                       5.5989209596E-16  2.0538509643E+00  4.6982231183E+00
                       2.0538509643E+00  8.7999709185E-16  7.3843204982E+00
                       1.2076766901E-15  2.0538509643E+00  1.0133978647E+01
                       2.0538509643E+00  1.5277816860E-15  1.2820076026E+01
                       1.8554571765E-15  2.0538509643E+00  1.5569699706E+01
                       2.0538509643E+00  2.1755621724E-15  1.8255797086E+01
                       2.5032376629E-15  2.0538509643E+00  2.1005420765E+01
                       2.0538509643E+00  2.8233426588E-15  2.3691518145E+01
                       2.0538509643E+00  3.1952704222E-15  2.6812475967E+01
                       3.5515930260E-15  2.0538509643E+00  2.9802486197E+01
                       2.0538509643E+00  2.0538509643E+00  2.8307498317E+01
                       3.3734337780E-15  3.3734337780E-15  2.8307498317E+01
            xcart      3.8812158402E+00  1.0508935258E-15  8.8183639191E+00
                       1.6701104633E-15  3.8812158402E+00  1.4014399642E+01
                       3.8812158402E+00  2.2750212393E-15  1.9090388056E+01
                       2.8942381769E-15  3.8812158402E+00  2.4286423778E+01
                       3.8812158402E+00  3.4991489529E-15  2.9362412193E+01
                       4.1183658905E-15  3.8812158402E+00  3.4558447915E+01
                       3.8812158402E+00  4.7232766665E-15  3.9634436329E+01
                       5.3425013665E-15  3.8812158402E+00  4.4830537189E+01
                       1.0580427253E-15  3.8812158402E+00  8.8783550048E+00
                       3.8812158402E+00  1.6629535013E-15  1.3954343419E+01
                       2.2821782013E-15  3.8812158402E+00  1.9150444278E+01
                       3.8812158402E+00  2.8870889773E-15  2.4226432693E+01
                       3.5063059149E-15  3.8812158402E+00  2.9422468415E+01
                       3.8812158402E+00  4.1112166909E-15  3.4498456829E+01
                       4.7304336285E-15  3.8812158402E+00  3.9694492552E+01
                       3.8812158402E+00  5.3353444045E-15  4.4770480966E+01
                       3.8812158402E+00  6.0381860185E-15  5.0668236522E+01
                       6.7115381547E-15  3.8812158402E+00  5.6318536992E+01
                       3.8812158402E+00  3.8812158402E+00  5.3493419325E+01
                       6.3748659678E-15  6.3748659678E-15  5.3493419325E+01
             xred      5.0000000000E-01  2.5451086397E-32  1.3538200000E-01
                      -1.2553174550E-32  5.0000000000E-01  2.1515300000E-01
                       5.0000000000E-01 -2.5603026039E-32  2.9308100000E-01
                      -4.1574609594E-32  5.0000000000E-01  3.7285200000E-01
                       5.0000000000E-01 -5.4624461082E-32  4.5078000000E-01
                      -1.1466139942E-31  5.0000000000E-01  5.3055100000E-01
                       5.0000000000E-01  2.0200168819E-32  6.0847900000E-01
                      -7.4331858357E-32  5.0000000000E-01  6.8825100000E-01
                      -5.4468158982E-33  5.0000000000E-01  1.3630300000E-01
                       5.0000000000E-01 -1.8496667387E-32  2.1423100000E-01
                      -4.6930662386E-32  5.0000000000E-01  2.9400300000E-01
                       5.0000000000E-01 -1.0676707299E-32  3.7193100000E-01
                       2.7893967515E-32  5.0000000000E-01  4.5170200000E-01
                       5.0000000000E-01  9.6056642341E-33  5.2963000000E-01
                      -5.0431274105E-32  5.0000000000E-01  6.0940100000E-01
                       5.0000000000E-01 -1.1278493217E-31  6.8732900000E-01
                       5.0000000000E-01 -9.3691669479E-32  7.7787300000E-01
                      -1.0526112392E-31  5.0000000000E-01  8.6461800000E-01
                       5.0000000000E-01  5.0000000000E-01  8.2124600000E-01
                      -6.7420134542E-32 -6.7420134542E-32  8.2124600000E-01
            znucl       50.00000   34.00000   30.00000

================================================================================

 chkinp: Checking input parameters for consistency, jdtset=   1.

 chkinp: Checking input parameters for consistency, jdtset=   2.

 chkinp: Checking input parameters for consistency, jdtset=   3.

 chkinp: Checking input parameters for consistency, jdtset=   4.

 chkinp: Checking input parameters for consistency, jdtset=   5.

 chkinp: Checking input parameters for consistency, jdtset=   6.

================================================================================
== DATASET  1 ==================================================================
-   mpi_nproc: 4, omp_nthreads: -1 (-1 if OMP is not activated)


--- !DatasetInfo
iteration_state: {dtset: 1, }
dimensions: {natom: 20, nkpt: 10, mband: 159, nsppol: 1, nspinor: 1, nspden: 1, mpw: 20051, }
cutoff_energies: {ecut:  22.5, pawecutdg:  -1.0, }
electrons: {nelect:   3.12000000E+02, charge:   0.00000000E+00, occopt:   1.00000000E+00, tsmear:   1.00000000E-02, }
meta: {optdriver: 0, ionmov: 0, optcell: 0, iscf: 7, paral_kgb: 0, }
...

 Exchange-correlation functional for the present dataset will be:
  GGA: Perdew-Burke-Ernzerhof functional - ixc=11
 Citation for XC functional:
  J.P.Perdew, K.Burke, M.Ernzerhof, PRL 77, 3865 (1996)

 Real(R)+Recip(G) space primitive vectors, cartesian coordinates (Bohr,Bohr^-1):
 R(1)=  7.7624317  0.0000000  0.0000000  G(1)=  0.1288256  0.0000000  0.0000000
 R(2)=  0.0000000  7.7624317  0.0000000  G(2)=  0.0000000  0.1288256  0.0000000
 R(3)=  0.0000000  0.0000000 65.1369009  G(3)=  0.0000000  0.0000000  0.0153523
 Unit cell volume ucvol=  3.9248465E+03 bohr^3
 Angles (23,13,12)=  9.00000000E+01  9.00000000E+01  9.00000000E+01 degrees

 getcut: wavevector=  0.0000  0.0000  0.0000  ngfft=  36  36 288
         ecut(hartree)=     22.500   => boxcut(ratio)=   2.07066

--- Pseudopotential description ------------------------------------------------
- pspini: atom type   1  psp file is ../../../Psps_for_tests/ATOMICDATA_NC/Sn.psp8
- pspatm: opening atomic psp file    ../../../Psps_for_tests/ATOMICDATA_NC/Sn.psp8
- Sn    ONCVPSP  r_core=  2.27  2.62  1.86
- 50.00000  14.00000    150810                znucl, zion, pspdat
    8   11    2    4       600   0.00000      pspcod,pspxc,lmax,lloc,mmax,r2well
    5.99000000000000    6.50000000000000    0.00000000000000   rchrg,fchrg,qchrg
     nproj     2     2     2
     extension_switch     1
  pspatm : epsatm=   32.65190642
         --- l  ekb(1:nproj) -->
             0    5.462393    0.682281
             1    4.443814    0.825686
             2   -5.382195   -1.704077
 pspatm: atomic psp has been read  and splines computed

- pspini: atom type   2  psp file is ../../../Psps_for_tests/ATOMICDATA_NC/Se.psp8
- pspatm: opening atomic psp file    ../../../Psps_for_tests/ATOMICDATA_NC/Se.psp8
- Se    ONCVPSP  r_core=  1.82  1.50  1.91
- 34.00000  16.00000    150729                znucl, zion, pspdat
    8   11    2    4       600   0.00000      pspcod,pspxc,lmax,lloc,mmax,r2well
    5.99000000000000    5.00000000000000    0.00000000000000   rchrg,fchrg,qchrg
     nproj     2     2     2
     extension_switch     1
  pspatm : epsatm=   29.53325930
         --- l  ekb(1:nproj) -->
             0    8.612261    0.939919
             1    6.984962    1.281898
             2   -9.322521   -3.856218
 pspatm: atomic psp has been read  and splines computed

- pspini: atom type   3  psp file is ../../../Psps_for_tests/ATOMICDATA_NC/Zn.psp8
- pspatm: opening atomic psp file    ../../../Psps_for_tests/ATOMICDATA_NC/Zn.psp8
- Zn    ONCVPSP  r_core=  1.36  1.66  1.85
- 30.00000  20.00000    161102                znucl, zion, pspdat
    8   11    2    4       600   0.00000      pspcod,pspxc,lmax,lloc,mmax,r2well
    5.99000000000000    2.50000000000000    0.00000000000000   rchrg,fchrg,qchrg
     nproj     2     2     2
     extension_switch     1
  pspatm : epsatm=   26.67245340
         --- l  ekb(1:nproj) -->
             0    2.404235   -1.533451
             1   -4.677427   -1.530630
             2   -7.000316   -2.622858
 pspatm: atomic psp has been read  and splines computed

   1.90286538E+05                                ecore*ucvol(ha*bohr**3)
--------------------------------------------------------------------------------

_setup2: Arith. and geom. avg. npw (full set) are   20007.375   20007.365

================================================================================

--- !BeginCycle
iteration_state: {dtset: 1, }
solver: {iscf: 7, nstep: 400, nline: 4, wfoptalg: 0, }
tolerances: {tolwfr: 1.00E-20, }
...

     iter   Etot(hartree)      deltaE(h)  residm     vres2
 ETOT  1  -2009.6799529804    -2.010E+03 8.385E-01 3.272E+07
 ETOT  2   12610.584247979     1.462E+04 3.299E-01 3.606E+09
 ETOT  3  -89.751456876541    -1.270E+04 3.052E+00 4.764E+08
 ETOT  4  -2170.4469038656    -2.081E+03 4.799E-01 1.066E+07
 ETOT  5  -2240.2105459134    -6.976E+01 7.264E-02 5.370E+05
 ETOT  6  -2244.3913356942    -4.181E+00 2.435E-02 3.110E+05
 ETOT  7  -2245.2818232149    -8.905E-01 2.284E-02 4.072E+05
 ETOT  8  -2245.8924351207    -6.106E-01 2.117E-02 3.895E+05
 ETOT  9  -2245.6867380019     2.057E-01 4.580E-03 5.640E+05
 ETOT 10  -2246.2394936663    -5.528E-01 1.072E-02 5.862E+05
 ETOT 11  -2247.4762969456    -1.237E+00 2.836E-03 2.966E+05
 ETOT 12  -2248.6982625180    -1.222E+00 1.841E-02 2.069E+03
 ETOT 13  -2248.7037270415    -5.465E-03 9.417E-03 1.081E+03
 ETOT 14  -2248.7085394053    -4.812E-03 4.317E-03 3.925E+02
 ETOT 15  -2248.7098677550    -1.328E-03 1.238E-03 1.535E+02
 ETOT 16  -2248.7103180284    -4.503E-04 9.497E-04 6.608E+01
 ETOT 17  -2248.7104816273    -1.636E-04 5.045E-04 3.077E+01
 ETOT 18  -2248.7105118363    -3.021E-05 4.520E-04 1.284E+01
 ETOT 19  -2248.7105305694    -1.873E-05 2.687E-04 1.775E+01
 ETOT 20  -2248.7105641163    -3.355E-05 4.334E-04 5.150E+00
 ETOT 21  -2248.7105789956    -1.488E-05 9.227E-04 1.323E+00
 ETOT 22  -2248.7105823390    -3.343E-06 1.136E-03 1.067E-01
 ETOT 23  -2248.7105841036    -1.765E-06 1.601E-03 4.999E-02
 ETOT 24  -2248.7105843313    -2.277E-07 7.479E-04 9.016E-03
 ETOT 25  -2248.7105843563    -2.505E-08 5.410E-04 1.485E-03
 ETOT 26  -2248.7105843747    -1.840E-08 3.022E-04 8.192E-04
 ETOT 27  -2248.7105843753    -5.530E-10 1.177E-03 5.694E-04
 ETOT 28  -2248.7105843803    -5.007E-09 1.784E-03 5.970E-05
 ETOT 29  -2248.7105843805    -2.269E-10 2.664E-03 1.397E-05
 ETOT 30  -2248.7105843805     4.411E-11 8.452E-04 2.323E-06
 ETOT 31  -2248.7105843811    -6.075E-10 4.145E-04 9.895E-07
 ETOT 32  -2248.7105843807     3.224E-10 1.502E-04 1.408E-07
 ETOT 33  -2248.7105843812    -4.511E-10 4.104E-05 7.284E-08
 ETOT 34  -2248.7105843808     3.793E-10 2.086E-05 2.075E-08
 ETOT 35  -2248.7105843807     7.140E-11 1.826E-05 5.929E-09
 ETOT 36  -2248.7105843806     1.405E-10 1.851E-05 3.926E-10
 ETOT 37  -2248.7105843813    -6.798E-10 1.593E-05 4.810E-11
 ETOT 38  -2248.7105843813    -6.230E-11 1.610E-05 3.009E-11
 ETOT 39  -2248.7105843813     8.231E-11 1.366E-05 3.913E-12
 ETOT 40  -2248.7105843807     5.161E-10 1.377E-05 4.135E-13
 ETOT 41  -2248.7105843810    -2.133E-10 1.155E-05 1.743E-13
 ETOT 42  -2248.7105843808     2.065E-10 1.161E-05 7.323E-14
 ETOT 43  -2248.7105843807     6.003E-11 9.656E-06 2.159E-14
 ETOT 44  -2248.7105843808    -9.459E-11 9.689E-06 6.836E-15
 ETOT 45  -2248.7105843806     1.705E-10 7.997E-06 2.093E-15
 ETOT 46  -2248.7105843806    -3.047E-11 8.009E-06 1.708E-15
 ETOT 47  -2248.7105843806     3.911E-11 6.572E-06 1.216E-15
 ETOT 48  -2248.7105843807    -4.547E-11 6.571E-06 6.779E-16
 ETOT 49  -2248.7105843806     1.455E-11 5.366E-06 4.181E-16
 ETOT 50  -2248.7105843807    -5.821E-11 5.357E-06 3.101E-16
 ETOT 51  -2248.7105843807     3.638E-11 4.358E-06 1.767E-16
 ETOT 52  -2248.7105843807     4.093E-12 4.345E-06 1.490E-16
 ETOT 53  -2248.7105843806     1.046E-11 3.524E-06 1.158E-16
 ETOT 54  -2248.7105843807    -1.910E-11 3.510E-06 8.197E-17
 ETOT 55  -2248.7105843807     6.366E-12 2.839E-06 6.469E-17
 ETOT 56  -2248.7105843807     4.093E-12 2.825E-06 6.735E-17
 ETOT 57  -2248.7105843807     1.819E-12 2.281E-06 6.981E-17
 ETOT 58  -2248.7105843806     7.276E-12 2.267E-06 6.257E-17
 ETOT 59  -2248.7105843806     3.047E-11 1.827E-06 5.586E-17
 ETOT 60  -2248.7105843806     2.274E-12 1.815E-06 4.723E-17
 ETOT 61  -2248.7105843806     5.002E-12 1.461E-06 4.525E-17
 ETOT 62  -2248.7105843807    -1.019E-10 1.586E-06 2.855E-17
 ETOT 63  -2248.7105843807     1.592E-11 1.256E-06 2.649E-17
 ETOT 64  -2248.7105843807    -1.046E-11 1.568E-06 2.562E-17
 ETOT 65  -2248.7105843807    -5.457E-12 1.241E-06 2.414E-17
 ETOT 66  -2248.7105843807     6.821E-12 1.545E-06 2.261E-17
 ETOT 67  -2248.7105843807    -1.455E-11 1.222E-06 2.012E-17
 ETOT 68  -2248.7105843807    -9.095E-12 1.517E-06 1.785E-17
 ETOT 69  -2248.7105843807    -8.640E-12 1.200E-06 1.567E-17
 ETOT 70  -2248.7105843808    -6.639E-11 1.486E-06 1.551E-17
 ETOT 71  -2248.7105843808     1.819E-11 1.175E-06 1.454E-17
 ETOT 72  -2248.7105843808     4.093E-12 1.451E-06 1.187E-17
 ETOT 73  -2248.7105843808     5.457E-12 1.147E-06 1.106E-17
 ETOT 74  -2248.7105843808     1.319E-11 1.412E-06 1.151E-17
 ETOT 75  -2248.7105843808    -1.683E-11 1.116E-06 1.128E-17
 ETOT 76  -2248.7105843808    -4.547E-13 1.371E-06 1.111E-17
 ETOT 77  -2248.7105843808     6.366E-12 1.084E-06 9.954E-18
 ETOT 78  -2248.7105843808     2.728E-12 1.328E-06 9.636E-18
 ETOT 79  -2248.7105843808    -4.547E-12 1.049E-06 9.373E-18
 ETOT 80  -2248.7105843808    -5.912E-12 1.282E-06 8.596E-18
 ETOT 81  -2248.7105843808     1.819E-12 1.013E-06 8.966E-18
 ETOT 82  -2248.7105843808     3.183E-12 1.235E-06 7.722E-18
 ETOT 83  -2248.7105843808    -9.095E-13 9.761E-07 7.330E-18
 ETOT 84  -2248.7105843808     5.002E-12 1.186E-06 8.350E-18
 ETOT 85  -2248.7105843808     6.821E-12 9.380E-07 8.058E-18
 ETOT 86  -2248.7105843808    -5.912E-12 1.137E-06 6.982E-18
 ETOT 87  -2248.7105843808    -7.276E-12 8.993E-07 6.035E-18
 ETOT 88  -2248.7105843808     6.366E-12 1.087E-06 6.540E-18
 ETOT 89  -2248.7105843808    -7.276E-12 8.602E-07 6.347E-18
 ETOT 90  -2248.7105843808    -9.095E-13 1.038E-06 5.498E-18
 ETOT 91  -2248.7105843808    -6.821E-12 8.211E-07 5.830E-18
 ETOT 92  -2248.7105843808    -5.002E-12 9.881E-07 7.048E-18
 ETOT 93  -2248.7105843808     4.547E-13 7.822E-07 5.500E-18
 ETOT 94  -2248.7105843808     8.185E-12 9.391E-07 5.406E-18
 ETOT 95  -2248.7105843808    -1.819E-12 7.437E-07 5.872E-18
 ETOT 96  -2248.7105843808     1.455E-11 8.909E-07 4.877E-18
 ETOT 97  -2248.7105843808    -1.228E-11 7.057E-07 4.652E-18
 ETOT 98  -2248.7105843808    -5.002E-12 8.436E-07 6.025E-18
 ETOT 99  -2248.7105843808    -5.002E-12 6.685E-07 5.527E-18
 ETOT  100  -2248.7105843808     7.276E-12 7.975E-07 6.057E-18
 ETOT  101  -2248.7105843808    -7.731E-12 6.322E-07 5.653E-18
 ETOT  102  -2248.7105843808     0.000E+00 7.527E-07 4.489E-18
 ETOT  103  -2248.7105843808    -4.547E-12 5.970E-07 5.548E-18
 ETOT  104  -2248.7105843808     1.046E-11 7.093E-07 5.841E-18
 ETOT  105  -2248.7105843808    -2.274E-12 5.629E-07 4.621E-18
 ETOT  106  -2248.7105843808     1.000E-11 6.675E-07 4.612E-18
 ETOT  107  -2248.7105843808     7.276E-12 5.299E-07 4.615E-18
 ETOT  108  -2248.7105843808     7.276E-12 6.274E-07 5.017E-18
 ETOT  109  -2248.7105843808     9.095E-13 4.983E-07 4.641E-18
 ETOT  110  -2248.7105843808    -3.638E-12 5.889E-07 5.128E-18
 ETOT  111  -2248.7105843808     5.457E-12 4.679E-07 4.886E-18
 ETOT  112  -2248.7105843808     5.457E-12 5.521E-07 3.884E-18
 ETOT  113  -2248.7105843808     9.095E-13 4.389E-07 5.660E-18
 ETOT  114  -2248.7105843807     5.912E-12 5.170E-07 3.707E-18
 ETOT  115  -2248.7105843808    -1.819E-12 4.112E-07 5.225E-18
 ETOT  116  -2248.7105843807     1.501E-11 4.837E-07 3.897E-18
 ETOT  117  -2248.7105843807     2.274E-12 3.849E-07 4.465E-18
 ETOT  118  -2248.7105843807    -2.728E-12 4.521E-07 5.269E-18
 ETOT  119  -2248.7105843807    -2.274E-12 3.599E-07 4.336E-18
 ETOT  120  -2248.7105843807    -1.819E-12 4.221E-07 4.537E-18
 ETOT  121  -2248.7105843807    -3.183E-12 3.363E-07 4.023E-18
 ETOT  122  -2248.7105843807     4.547E-13 3.939E-07 3.841E-18
 ETOT  123  -2248.7105843807     2.728E-12 3.139E-07 4.041E-18
 ETOT  124  -2248.7105843807    -6.366E-12 3.672E-07 5.843E-18
 ETOT  125  -2248.7105843807     5.912E-12 2.928E-07 3.825E-18
 ETOT  126  -2248.7105843807    -5.002E-12 3.421E-07 4.713E-18
 ETOT  127  -2248.7105843807     9.095E-13 2.729E-07 4.275E-18
 ETOT  128  -2248.7105843807     3.638E-12 3.184E-07 3.756E-18
 ETOT  129  -2248.7105843807    -2.274E-12 2.542E-07 4.064E-18
 ETOT  130  -2248.7105843807     2.274E-12 2.963E-07 4.133E-18
 ETOT  131  -2248.7105843807    -3.638E-12 2.366E-07 4.644E-18
 ETOT  132  -2248.7105843808    -8.185E-12 2.755E-07 4.338E-18
 ETOT  133  -2248.7105843808    -5.002E-12 2.201E-07 4.204E-18
 ETOT  134  -2248.7105843808    -5.457E-12 2.560E-07 5.335E-18
 ETOT  135  -2248.7105843808    -7.731E-12 2.046E-07 4.825E-18
 ETOT  136  -2248.7105843808     6.366E-12 2.378E-07 4.015E-18
 ETOT  137  -2248.7105843808     0.000E+00 1.901E-07 4.034E-18
 ETOT  138  -2248.7105843808    -5.457E-12 2.207E-07 3.929E-18
 ETOT  139  -2248.7105843808     0.000E+00 1.766E-07 4.420E-18
 ETOT  140  -2248.7105843808    -5.912E-12 2.048E-07 5.080E-18
 ETOT  141  -2248.7105843808     2.274E-12 1.640E-07 3.385E-18
 ETOT  142  -2248.7105843808    -1.819E-12 1.900E-07 4.302E-18
 ETOT  143  -2248.7105843808    -2.728E-12 1.521E-07 3.571E-18
 ETOT  144  -2248.7105843808    -1.364E-12 1.762E-07 3.749E-18
 ETOT  145  -2248.7105843808    -3.183E-12 1.411E-07 3.667E-18
 ETOT  146  -2248.7105843808     8.640E-12 1.633E-07 4.060E-18
 ETOT  147  -2248.7105843808    -5.002E-12 1.309E-07 3.230E-18
 ETOT  148  -2248.7105843808     6.366E-12 1.513E-07 3.846E-18
 ETOT  149  -2248.7105843808    -5.912E-12 1.213E-07 5.308E-18
 ETOT  150  -2248.7105843808     1.091E-11 1.402E-07 3.686E-18
 ETOT  151  -2248.7105843808    -5.912E-12 1.124E-07 4.337E-18
 ETOT  152  -2248.7105843808     4.093E-12 1.298E-07 4.231E-18
 ETOT  153  -2248.7105843808    -2.274E-12 1.042E-07 4.024E-18
 ETOT  154  -2248.7105843808    -8.185E-12 1.202E-07 3.770E-18
 ETOT  155  -2248.7105843808     2.728E-12 9.649E-08 4.256E-18
 ETOT  156  -2248.7105843808    -1.819E-12 1.112E-07 3.937E-18
 ETOT  157  -2248.7105843808     0.000E+00 8.935E-08 4.821E-18
 ETOT  158  -2248.7105843808    -3.638E-12 1.029E-07 3.727E-18
 ETOT  159  -2248.7105843808    -2.274E-12 8.272E-08 5.191E-18
 ETOT  160  -2248.7105843808     0.000E+00 9.524E-08 4.256E-18
 ETOT  161  -2248.7105843808    -2.274E-12 7.656E-08 4.638E-18
 ETOT  162  -2248.7105843808     3.638E-12 8.810E-08 3.193E-18
 ETOT  163  -2248.7105843808    -3.638E-12 7.085E-08 4.267E-18
 ETOT  164  -2248.7105843808    -9.095E-13 8.148E-08 4.237E-18
 ETOT  165  -2248.7105843808     1.182E-11 6.556E-08 3.657E-18
 ETOT  166  -2248.7105843808     9.095E-13 7.535E-08 2.997E-18
 ETOT  167  -2248.7105843808    -9.095E-13 6.065E-08 4.345E-18
 ETOT  168  -2248.7105843808    -3.183E-12 6.967E-08 4.375E-18
 ETOT  169  -2248.7105843808    -2.728E-12 5.609E-08 4.386E-18
 ETOT  170  -2248.7105843808     4.093E-12 6.441E-08 4.756E-18
 ETOT  171  -2248.7105843808     0.000E+00 5.188E-08 4.595E-18
 ETOT  172  -2248.7105843808    -1.819E-12 5.954E-08 4.072E-18
 ETOT  173  -2248.7105843808     3.638E-12 4.797E-08 4.542E-18
 ETOT  174  -2248.7105843808     7.276E-12 5.503E-08 4.658E-18
 ETOT  175  -2248.7105843808    -1.819E-12 4.435E-08 3.857E-18
 ETOT  176  -2248.7105843808     1.364E-12 5.086E-08 5.000E-18
 ETOT  177  -2248.7105843808     2.728E-12 4.101E-08 4.921E-18
 ETOT  178  -2248.7105843808    -3.638E-12 4.700E-08 4.024E-18
 ETOT  179  -2248.7105843808    -5.002E-12 3.790E-08 4.672E-18
 ETOT  180  -2248.7105843808    -1.364E-12 4.342E-08 4.612E-18
 ETOT  181  -2248.7105843808    -5.457E-12 3.504E-08 3.829E-18
 ETOT  182  -2248.7105843808     3.183E-12 4.012E-08 3.881E-18
 ETOT  183  -2248.7105843808     0.000E+00 3.238E-08 4.071E-18
 ETOT  184  -2248.7105843808     3.638E-12 3.707E-08 3.977E-18
 ETOT  185  -2248.7105843808     9.095E-13 2.992E-08 3.920E-18
 ETOT  186  -2248.7105843808    -5.002E-12 3.424E-08 4.594E-18
 ETOT  187  -2248.7105843808    -4.547E-13 2.765E-08 4.540E-18
 ETOT  188  -2248.7105843808    -3.638E-12 3.163E-08 4.266E-18
 ETOT  189  -2248.7105843808     2.274E-12 2.555E-08 3.682E-18
 ETOT  190  -2248.7105843808     0.000E+00 2.922E-08 3.782E-18
 ETOT  191  -2248.7105843808     2.274E-12 2.361E-08 3.601E-18
 ETOT  192  -2248.7105843808     1.364E-12 2.698E-08 3.970E-18
 ETOT  193  -2248.7105843808    -4.547E-13 2.181E-08 3.423E-18
 ETOT  194  -2248.7105843808     5.457E-12 2.492E-08 4.794E-18
 ETOT  195  -2248.7105843808    -1.819E-12 2.015E-08 3.889E-18
 ETOT  196  -2248.7105843808     1.819E-12 2.302E-08 3.788E-18
 ETOT  197  -2248.7105843808    -2.728E-12 1.862E-08 3.961E-18
 ETOT  198  -2248.7105843808     1.819E-12 2.126E-08 5.053E-18
 ETOT  199  -2248.7105843808    -1.364E-12 1.720E-08 3.659E-18
 ETOT  200  -2248.7105843808     6.821E-12 1.963E-08 3.957E-18
 ETOT  201  -2248.7105843808     2.274E-12 1.588E-08 4.223E-18
 ETOT  202  -2248.7105843808    -2.728E-12 1.813E-08 4.642E-18
 ETOT  203  -2248.7105843808     2.274E-12 1.467E-08 3.505E-18
 ETOT  204  -2248.7105843808    -9.095E-13 1.674E-08 4.093E-18
 ETOT  205  -2248.7105843808     1.819E-12 1.355E-08 4.653E-18
 ETOT  206  -2248.7105843808     0.000E+00 1.546E-08 4.994E-18
 ETOT  207  -2248.7105843808     1.364E-12 1.252E-08 3.867E-18
 ETOT  208  -2248.7105843808    -1.364E-12 1.427E-08 3.686E-18
 ETOT  209  -2248.7105843808    -9.095E-13 1.156E-08 3.990E-18
 ETOT  210  -2248.7105843808     3.183E-12 1.318E-08 4.908E-18
 ETOT  211  -2248.7105843808    -1.819E-12 1.068E-08 3.613E-18
 ETOT  212  -2248.7105843808     1.364E-12 1.217E-08 4.837E-18
 ETOT  213  -2248.7105843808     1.819E-12 9.860E-09 3.740E-18
 ETOT  214  -2248.7105843808     2.728E-12 1.123E-08 3.568E-18
 ETOT  215  -2248.7105843808    -4.547E-13 9.106E-09 4.012E-18
 ETOT  216  -2248.7105843808     2.274E-12 1.037E-08 4.490E-18
 ETOT  217  -2248.7105843808    -4.547E-12 8.410E-09 3.445E-18
 ETOT  218  -2248.7105843808     2.728E-12 9.576E-09 4.433E-18
 ETOT  219  -2248.7105843808     1.364E-12 7.766E-09 3.384E-18
 ETOT  220  -2248.7105843808     4.547E-13 8.841E-09 4.158E-18
 ETOT  221  -2248.7105843808    -1.364E-12 7.172E-09 4.243E-18
 ETOT  222  -2248.7105843808     4.547E-12 8.162E-09 5.147E-18
 ETOT  223  -2248.7105843808     4.547E-13 6.623E-09 4.385E-18
 ETOT  224  -2248.7105843808    -2.728E-12 7.536E-09 3.000E-18
 ETOT  225  -2248.7105843808     9.095E-13 6.116E-09 4.123E-18
 ETOT  226  -2248.7105843808     4.547E-12 6.957E-09 4.129E-18
 ETOT  227  -2248.7105843808    -5.002E-12 5.647E-09 3.192E-18
 ETOT  228  -2248.7105843808     2.274E-12 6.423E-09 4.559E-18
 ETOT  229  -2248.7105843808    -2.728E-12 5.215E-09 4.141E-18
 ETOT  230  -2248.7105843808    -3.183E-12 5.930E-09 4.472E-18
 ETOT  231  -2248.7105843808     6.821E-12 4.815E-09 4.552E-18
 ETOT  232  -2248.7105843808    -4.547E-12 5.474E-09 3.791E-18
 ETOT  233  -2248.7105843808     4.093E-12 4.446E-09 2.910E-18
 ETOT  234  -2248.7105843808    -4.547E-13 5.054E-09 4.020E-18
 ETOT  235  -2248.7105843808    -2.728E-12 4.106E-09 4.014E-18
 ETOT  236  -2248.7105843808     5.002E-12 4.666E-09 3.868E-18
 ETOT  237  -2248.7105843808    -2.728E-12 3.791E-09 4.209E-18
 ETOT  238  -2248.7105843808     0.000E+00 4.307E-09 3.711E-18
 ETOT  239  -2248.7105843808    -4.547E-13 3.500E-09 3.573E-18
 ETOT  240  -2248.7105843808     1.364E-12 3.976E-09 4.154E-18
 ETOT  241  -2248.7105843808    -2.728E-12 3.232E-09 4.125E-18
 ETOT  242  -2248.7105843808     4.547E-13 3.671E-09 3.766E-18
 ETOT  243  -2248.7105843808    -3.638E-12 2.984E-09 3.499E-18
 ETOT  244  -2248.7105843808     2.728E-12 3.389E-09 3.544E-18
 ETOT  245  -2248.7105843808     2.274E-12 2.756E-09 4.103E-18
 ETOT  246  -2248.7105843808    -4.547E-12 3.129E-09 3.638E-18
 ETOT  247  -2248.7105843808     5.002E-12 2.544E-09 4.281E-18
 ETOT  248  -2248.7105843808    -9.095E-13 2.888E-09 4.794E-18
 ETOT  249  -2248.7105843808     1.364E-12 2.349E-09 4.239E-18
 ETOT  250  -2248.7105843808     1.364E-12 2.666E-09 3.274E-18
 ETOT  251  -2248.7105843808    -9.095E-13 2.169E-09 3.742E-18
 ETOT  252  -2248.7105843808    -1.364E-12 2.461E-09 4.818E-18
 ETOT  253  -2248.7105843808    -4.547E-13 2.003E-09 4.349E-18
 ETOT  254  -2248.7105843808    -1.819E-12 2.272E-09 4.190E-18
 ETOT  255  -2248.7105843808     9.095E-13 1.849E-09 3.912E-18
 ETOT  256  -2248.7105843808    -4.547E-13 2.098E-09 3.976E-18
 ETOT  257  -2248.7105843808     0.000E+00 1.732E-09 4.225E-18
 ETOT  258  -2248.7105843808     9.095E-13 1.937E-09 3.855E-18
 ETOT  259  -2248.7105843808    -1.364E-12 1.632E-09 4.855E-18
 ETOT  260  -2248.7105843808     1.364E-12 1.788E-09 4.495E-18
 ETOT  261  -2248.7105843808    -9.095E-13 1.537E-09 4.370E-18
 ETOT  262  -2248.7105843808     2.274E-12 1.650E-09 5.142E-18
 ETOT  263  -2248.7105843808    -3.638E-12 1.449E-09 4.252E-18
 ETOT  264  -2248.7105843808     3.183E-12 1.524E-09 4.482E-18
 ETOT  265  -2248.7105843808    -2.274E-12 1.365E-09 5.622E-18
 ETOT  266  -2248.7105843808     1.819E-12 1.407E-09 3.424E-18
 ETOT  267  -2248.7105843808    -5.457E-12 1.286E-09 4.652E-18
 ETOT  268  -2248.7105843808     1.819E-12 1.299E-09 3.576E-18
 ETOT  269  -2248.7105843808     2.274E-12 1.212E-09 3.979E-18
 ETOT  270  -2248.7105843808     1.364E-12 1.199E-09 3.524E-18
 ETOT  271  -2248.7105843808    -5.457E-12 1.142E-09 5.316E-18
 ETOT  272  -2248.7105843808    -3.183E-12 1.107E-09 3.828E-18
 ETOT  273  -2248.7105843808     6.821E-12 1.076E-09 4.203E-18
 ETOT  274  -2248.7105843808     1.364E-12 1.022E-09 4.179E-18
 ETOT  275  -2248.7105843808    -2.274E-12 1.014E-09 4.106E-18
 ETOT  276  -2248.7105843808    -2.728E-12 9.432E-10 3.961E-18
 ETOT  277  -2248.7105843808    -2.274E-12 9.551E-10 4.058E-18
 ETOT  278  -2248.7105843808     2.728E-12 8.707E-10 3.795E-18
 ETOT  279  -2248.7105843808     2.274E-12 8.999E-10 4.924E-18
 ETOT  280  -2248.7105843808    -1.364E-12 8.038E-10 4.936E-18
 ETOT  281  -2248.7105843808    -4.547E-13 8.479E-10 4.707E-18
 ETOT  282  -2248.7105843808    -3.183E-12 7.421E-10 4.421E-18
 ETOT  283  -2248.7105843808     4.547E-13 7.990E-10 3.271E-18
 ETOT  284  -2248.7105843808    -1.364E-12 6.851E-10 3.754E-18
 ETOT  285  -2248.7105843808     5.457E-12 7.529E-10 4.137E-18
 ETOT  286  -2248.7105843808    -1.819E-12 6.325E-10 4.827E-18
 ETOT  287  -2248.7105843808     4.547E-13 7.094E-10 4.459E-18
 ETOT  288  -2248.7105843808     0.000E+00 5.839E-10 4.614E-18
 ETOT  289  -2248.7105843808    -9.095E-13 6.685E-10 3.563E-18
 ETOT  290  -2248.7105843808    -5.912E-12 5.390E-10 4.041E-18
 ETOT  291  -2248.7105843808     6.821E-12 6.299E-10 3.506E-18
 ETOT  292  -2248.7105843808    -1.819E-12 4.976E-10 4.499E-18
 ETOT  293  -2248.7105843808     3.183E-12 5.935E-10 4.272E-18
 ETOT  294  -2248.7105843808    -4.093E-12 4.594E-10 3.541E-18
 ETOT  295  -2248.7105843808    -1.819E-12 5.593E-10 4.077E-18
 ETOT  296  -2248.7105843808     4.093E-12 4.241E-10 3.292E-18
 ETOT  297  -2248.7105843808    -3.183E-12 5.270E-10 4.337E-18
 ETOT  298  -2248.7105843808     2.728E-12 3.916E-10 4.197E-18
 ETOT  299  -2248.7105843808     0.000E+00 4.966E-10 4.679E-18
 ETOT  300  -2248.7105843808     4.547E-13 3.615E-10 3.410E-18
 ETOT  301  -2248.7105843808    -6.366E-12 4.679E-10 3.957E-18
 ETOT  302  -2248.7105843808     5.912E-12 3.337E-10 4.207E-18
 ETOT  303  -2248.7105843808    -2.728E-12 4.410E-10 4.587E-18
 ETOT  304  -2248.7105843808     2.728E-12 3.081E-10 3.705E-18
 ETOT  305  -2248.7105843808    -2.274E-12 4.155E-10 3.651E-18
 ETOT  306  -2248.7105843808     3.183E-12 2.844E-10 3.752E-18
 ETOT  307  -2248.7105843808    -2.728E-12 3.916E-10 3.961E-18
 ETOT  308  -2248.7105843808     1.819E-12 2.626E-10 4.040E-18
 ETOT  309  -2248.7105843808    -1.364E-12 3.690E-10 3.968E-18
 ETOT  310  -2248.7105843808     2.274E-12 2.424E-10 3.559E-18
 ETOT  311  -2248.7105843808     1.364E-12 3.477E-10 3.942E-18
 ETOT  312  -2248.7105843808    -6.366E-12 2.238E-10 3.446E-18
 ETOT  313  -2248.7105843808     6.821E-12 3.276E-10 4.459E-18
 ETOT  314  -2248.7105843808    -1.819E-12 2.066E-10 3.798E-18
 ETOT  315  -2248.7105843808    -5.002E-12 3.088E-10 3.755E-18
 ETOT  316  -2248.7105843808     2.274E-12 1.908E-10 4.091E-18
 ETOT  317  -2248.7105843808     9.095E-13 2.909E-10 4.717E-18
 ETOT  318  -2248.7105843808    -4.547E-12 1.761E-10 4.249E-18
 ETOT  319  -2248.7105843808     1.819E-12 2.742E-10 4.518E-18
 ETOT  320  -2248.7105843808     3.183E-12 1.626E-10 3.759E-18
 ETOT  321  -2248.7105843808     1.364E-12 2.584E-10 4.374E-18
 ETOT  322  -2248.7105843808    -2.728E-12 1.501E-10 3.927E-18
 ETOT  323  -2248.7105843808     1.819E-12 2.435E-10 4.012E-18
 ETOT  324  -2248.7105843808    -6.366E-12 1.386E-10 4.276E-18
 ETOT  325  -2248.7105843808     8.640E-12 2.294E-10 4.205E-18
 ETOT  326  -2248.7105843808    -1.819E-12 1.280E-10 4.043E-18
 ETOT  327  -2248.7105843808     9.095E-13 2.162E-10 4.401E-18
 ETOT  328  -2248.7105843808    -5.002E-12 1.181E-10 3.721E-18
 ETOT  329  -2248.7105843808    -3.183E-12 2.038E-10 3.578E-18
 ETOT  330  -2248.7105843808     0.000E+00 1.091E-10 4.918E-18
 ETOT  331  -2248.7105843808     8.185E-12 1.920E-10 3.928E-18
 ETOT  332  -2248.7105843808    -4.547E-12 1.007E-10 3.999E-18
 ETOT  333  -2248.7105843808    -9.095E-13 1.809E-10 3.618E-18
 ETOT  334  -2248.7105843808    -2.728E-12 9.296E-11 4.645E-18
 ETOT  335  -2248.7105843808     4.547E-12 1.705E-10 3.803E-18
 ETOT  336  -2248.7105843808    -1.364E-12 8.583E-11 4.651E-18
 ETOT  337  -2248.7105843808     8.185E-12 1.607E-10 4.673E-18
 ETOT  338  -2248.7105843808    -7.276E-12 7.924E-11 3.742E-18
 ETOT  339  -2248.7105843808    -4.547E-13 1.514E-10 3.338E-18
 ETOT  340  -2248.7105843808     2.274E-12 7.316E-11 3.901E-18
 ETOT  341  -2248.7105843808    -4.547E-12 1.427E-10 4.078E-18
 ETOT  342  -2248.7105843808     1.819E-12 6.754E-11 4.424E-18
 ETOT  343  -2248.7105843808     1.364E-12 1.345E-10 4.946E-18
 ETOT  344  -2248.7105843808     0.000E+00 6.236E-11 4.016E-18
 ETOT  345  -2248.7105843808     1.364E-12 1.267E-10 4.266E-18
 ETOT  346  -2248.7105843808    -2.274E-12 5.757E-11 4.479E-18
 ETOT  347  -2248.7105843808     1.364E-12 1.194E-10 4.265E-18
 ETOT  348  -2248.7105843808     2.728E-12 5.316E-11 4.029E-18
 ETOT  349  -2248.7105843808     0.000E+00 1.126E-10 4.355E-18
[...]
                       2.000000  2.000000  2.000000  2.000000  2.000000  2.000000
                       2.000000  2.000000  2.000000  2.000000  2.000000  2.000000
                       2.000000  2.000000  2.000000  2.000000  2.000000  2.000000
                       2.000000  2.000000  2.000000  2.000000  2.000000  2.000000
                       2.000000  2.000000  2.000000  2.000000  2.000000  2.000000
                       2.000000  2.000000  2.000000  2.000000  2.000000  2.000000
                       2.000000  2.000000  2.000000  2.000000  2.000000  2.000000
                       2.000000  2.000000  2.000000  2.000000  2.000000  2.000000
                       2.000000  2.000000  2.000000  2.000000  2.000000  2.000000
                       2.000000  2.000000  2.000000  2.000000  2.000000  2.000000
                       2.000000  2.000000  2.000000  2.000000  2.000000  2.000000
                       2.000000  2.000000  2.000000  2.000000  2.000000  2.000000
                       2.000000  2.000000  2.000000  2.000000  2.000000  2.000000
                       2.000000  2.000000  2.000000  2.000000  2.000000  2.000000
                       2.000000  2.000000  2.000000  2.000000  2.000000  2.000000
                       2.000000  2.000000  2.000000  2.000000  2.000000  2.000000
                       2.000000  2.000000  2.000000  2.000000  2.000000  2.000000
                       2.000000  2.000000  2.000000  2.000000  2.000000  2.000000
                       2.000000  2.000000  2.000000  2.000000  2.000000  2.000000
                       0.000000  0.000000  0.000000  0.000000  0.000000  0.000000
                       0.000000  0.000000  0.000000  0.000000  0.000000  0.000000
                       0.000000  0.000000  0.000000  0.000000  0.000000  0.000000
                       0.000000  0.000000  0.000000  0.000000  0.000000  0.000000
                       0.000000  0.000000  0.000000  0.000000  0.000000  0.000000
                       0.000000  0.000000  0.000000  0.000000  0.000000  0.000000
                       0.000000  0.000000  0.000000  0.000000  0.000000  0.000000
                       0.000000  0.000000  0.000000  0.000000  0.000000  0.000000
                       0.000000  0.000000  0.000000  0.000000  0.000000  0.000000
                       0.000000  0.000000  0.000000  0.000000  0.000000  0.000000
                       0.000000  0.000000  0.000000  0.000000  0.000000  0.000000
                       0.000000  0.000000  0.000000  0.000000  0.000000  0.000000
                       0.000000  0.000000  0.000000  0.000000  0.000000  0.000000
                       0.000000  0.000000  0.000000  0.000000  0.000000  0.000000
                       0.000000  0.000000  0.000000  0.000000  0.000000  0.000000
                       0.000000  0.000000  0.000000  0.000000  0.000000  0.000000
                       0.000000  0.000000  0.000000  0.000000  0.000000  0.000000
                       0.000000  0.000000  0.000000  0.000000  0.000000  0.000000
                       0.000000  0.000000  0.000000  0.000000  0.000000  0.000000
                       0.000000  0.000000  0.000000  0.000000  0.000000  0.000000
                       0.000000  0.000000  0.000000  0.000000  0.000000  0.000000
                       0.000000  0.000000  0.000000  0.000000  0.000000  0.000000
                       0.000000  0.000000  0.000000  0.000000  0.000000  0.000000
                       0.000000  0.000000  0.000000  0.000000  0.000000  0.000000
                       0.000000  0.000000  0.000000  0.000000  0.000000  0.000000
                       0.000000  0.000000  0.000000  0.000000  0.000000  0.000000
                       0.000000  0.000000  0.000000  0.000000  0.000000  0.000000
                       0.000000  0.000000  0.000000  0.000000  0.000000  0.000000
                       0.000000  0.000000  0.000000  0.000000  0.000000  0.000000
                       0.000000  0.000000  0.000000  0.000000  0.000000  0.000000
                       0.000000  0.000000  0.000000  0.000000  0.000000  0.000000
                       0.000000  0.000000  0.000000  0.000000  0.000000  0.000000
                       0.000000  0.000000
        optdriver1          0
        optdriver2          0
        optdriver3          0
        optdriver4          1
        optdriver5          1
        optdriver6          1
            prtwf1          1
            prtwf2          1
            prtwf3          1
            prtwf4          3
            prtwf5          3
            prtwf6          3
            rfdir1          0       0       0
            rfdir2          0       0       0
            rfdir3          0       0       0
            rfdir4          1       0       0
            rfdir5          0       1       0
            rfdir6          0       0       1
           rfelfd1          0
           rfelfd2          0
           rfelfd3          0
           rfelfd4          2
           rfelfd5          2
           rfelfd6          2
            rprim      1.0000000000E+00  0.0000000000E+00  0.0000000000E+00
                       0.0000000000E+00  1.0000000000E+00  0.0000000000E+00
                       1.0000000000E-15  1.0000000000E-15  8.3913010243E+00
           shiftk      5.00000000E-01  5.00000000E-01  5.00000000E-01
          spgroup          99
           strten1     1.6108484345E-02  1.6108484345E-02  1.5823809094E-02
                       0.0000000000E+00  0.0000000000E+00  0.0000000000E+00
           symrel      1  0  0   0  1  0   0  0  1       1  0  0   0 -1  0   0  0  1
                      -1  0  0   0 -1  0   0  0  1      -1  0  0   0  1  0   0  0  1
                       0  1  0   1  0  0   0  0  1       0  1  0  -1  0  0   0  0  1
                       0 -1  0  -1  0  0   0  0  1       0 -1  0   1  0  0   0  0  1
            tnons      0.0000000  0.0000000  0.0000000     0.0000000 -0.0000000  0.0000000
                      -0.0000000 -0.0000000  0.0000000    -0.0000000  0.0000000  0.0000000
                       0.5000000  0.5000000  0.0000000     0.5000000  0.5000000  0.0000000
                       0.5000000  0.5000000  0.0000000     0.5000000  0.5000000  0.0000000
           tolwfr      1.00000000E-20
            typat      1  1  1  1  1  1  1  1  2  2  2  2  2  2  2  2  2  2  3  3
           vdw_xc           5
              wtk1       0.06250    0.12500    0.12500    0.12500    0.06250    0.12500
                         0.12500    0.06250    0.12500    0.06250
              wtk2       0.06250    0.12500    0.12500    0.12500    0.06250    0.12500
                         0.12500    0.06250    0.12500    0.06250
              wtk3       0.01563    0.01563    0.01563    0.01563    0.01563    0.01563
                         0.01563    0.01563    0.01563    0.01563    0.01563    0.01563
                         0.01563    0.01563    0.01563    0.01563    0.01563    0.01563
                         0.01563    0.01563    0.01563    0.01563    0.01563    0.01563
                         0.01563    0.01563    0.01563    0.01563    0.01563    0.01563
                         0.01563    0.01563    0.01563    0.01563    0.01563    0.01563
                         0.01563    0.01563    0.01563    0.01563    0.01563    0.01563
                         0.01563    0.01563    0.01563    0.01563    0.01563    0.01563
                         0.01563    0.01563
              wtk4       0.01563    0.01563    0.01563    0.01563    0.01563    0.01563
                         0.01563    0.01563    0.01563    0.01563    0.01563    0.01563
                         0.01563    0.01563    0.01563    0.01563    0.01563    0.01563
                         0.01563    0.01563    0.01563    0.01563    0.01563    0.01563
                         0.01563    0.01563    0.01563    0.01563    0.01563    0.01563
                         0.01563    0.01563    0.01563    0.01563    0.01563    0.01563
                         0.01563    0.01563    0.01563    0.01563    0.01563    0.01563
                         0.01563    0.01563    0.01563    0.01563    0.01563    0.01563
                         0.01563    0.01563
              wtk5       0.01563    0.01563    0.01563    0.01563    0.01563    0.01563
                         0.01563    0.01563    0.01563    0.01563    0.01563    0.01563
                         0.01563    0.01563    0.01563    0.01563    0.01563    0.01563
                         0.01563    0.01563    0.01563    0.01563    0.01563    0.01563
                         0.01563    0.01563    0.01563    0.01563    0.01563    0.01563
                         0.01563    0.01563    0.01563    0.01563    0.01563    0.01563
                         0.01563    0.01563    0.01563    0.01563    0.01563    0.01563
                         0.01563    0.01563    0.01563    0.01563    0.01563    0.01563
                         0.01563    0.01563
              wtk6       0.01563    0.01563    0.01563    0.01563    0.01563    0.01563
                         0.01563    0.01563    0.01563    0.01563    0.01563    0.01563
                         0.01563    0.01563    0.01563    0.01563    0.01563    0.01563
                         0.01563    0.01563    0.01563    0.01563    0.01563    0.01563
                         0.01563    0.01563    0.01563    0.01563    0.01563    0.01563
                         0.01563    0.01563    0.01563    0.01563    0.01563    0.01563
                         0.01563    0.01563    0.01563    0.01563    0.01563    0.01563
                         0.01563    0.01563    0.01563    0.01563    0.01563    0.01563
                         0.01563    0.01563
                       outvars : Printing only first  50 k-points.
           xangst      2.0538509643E+00  5.5610890249E-16  4.6664772030E+00
                       8.8378439303E-16  2.0538509643E+00  7.4161008824E+00
                       2.0538509643E+00  1.2038893889E-15  1.0102198262E+01
                       1.5315648795E-15  2.0538509643E+00  1.2851821942E+01
                       2.0538509643E+00  1.8516698753E-15  1.5537919322E+01
                       2.1793453659E-15  2.0538509643E+00  1.8287543001E+01
                       2.0538509643E+00  2.4994503618E-15  2.0973640381E+01
                       2.8271299600E-15  2.0538509643E+00  2.3723298529E+01
                       5.5989209596E-16  2.0538509643E+00  4.6982231183E+00
                       2.0538509643E+00  8.7999709185E-16  7.3843204982E+00
                       1.2076766901E-15  2.0538509643E+00  1.0133978647E+01
                       2.0538509643E+00  1.5277816860E-15  1.2820076026E+01
                       1.8554571765E-15  2.0538509643E+00  1.5569699706E+01
                       2.0538509643E+00  2.1755621724E-15  1.8255797086E+01
                       2.5032376629E-15  2.0538509643E+00  2.1005420765E+01
                       2.0538509643E+00  2.8233426588E-15  2.3691518145E+01
                       2.0538509643E+00  3.1952704222E-15  2.6812475967E+01
                       3.5515930260E-15  2.0538509643E+00  2.9802486197E+01
                       2.0538509643E+00  2.0538509643E+00  2.8307498317E+01
                       3.3734337780E-15  3.3734337780E-15  2.8307498317E+01
            xcart      3.8812158402E+00  1.0508935258E-15  8.8183639191E+00
                       1.6701104633E-15  3.8812158402E+00  1.4014399642E+01
                       3.8812158402E+00  2.2750212393E-15  1.9090388056E+01
                       2.8942381769E-15  3.8812158402E+00  2.4286423778E+01
                       3.8812158402E+00  3.4991489529E-15  2.9362412193E+01
                       4.1183658905E-15  3.8812158402E+00  3.4558447915E+01
                       3.8812158402E+00  4.7232766665E-15  3.9634436329E+01
                       5.3425013665E-15  3.8812158402E+00  4.4830537189E+01
                       1.0580427253E-15  3.8812158402E+00  8.8783550048E+00
                       3.8812158402E+00  1.6629535013E-15  1.3954343419E+01
                       2.2821782013E-15  3.8812158402E+00  1.9150444278E+01
                       3.8812158402E+00  2.8870889773E-15  2.4226432693E+01
                       3.5063059149E-15  3.8812158402E+00  2.9422468415E+01
                       3.8812158402E+00  4.1112166909E-15  3.4498456829E+01
                       4.7304336285E-15  3.8812158402E+00  3.9694492552E+01
                       3.8812158402E+00  5.3353444045E-15  4.4770480966E+01
                       3.8812158402E+00  6.0381860185E-15  5.0668236522E+01
                       6.7115381547E-15  3.8812158402E+00  5.6318536992E+01
                       3.8812158402E+00  3.8812158402E+00  5.3493419325E+01
                       6.3748659678E-15  6.3748659678E-15  5.3493419325E+01
             xred      5.0000000000E-01  2.5451086397E-32  1.3538200000E-01
                      -1.2553174550E-32  5.0000000000E-01  2.1515300000E-01
                       5.0000000000E-01 -2.5603026039E-32  2.9308100000E-01
                      -4.1574609594E-32  5.0000000000E-01  3.7285200000E-01
                       5.0000000000E-01 -5.4624461082E-32  4.5078000000E-01
                      -1.1466139942E-31  5.0000000000E-01  5.3055100000E-01
                       5.0000000000E-01  2.0200168819E-32  6.0847900000E-01
                      -7.4331858357E-32  5.0000000000E-01  6.8825100000E-01
                      -5.4468158982E-33  5.0000000000E-01  1.3630300000E-01
                       5.0000000000E-01 -1.8496667387E-32  2.1423100000E-01
                      -4.6930662386E-32  5.0000000000E-01  2.9400300000E-01
                       5.0000000000E-01 -1.0676707299E-32  3.7193100000E-01
                       2.7893967515E-32  5.0000000000E-01  4.5170200000E-01
                       5.0000000000E-01  9.6056642341E-33  5.2963000000E-01
                      -5.0431274105E-32  5.0000000000E-01  6.0940100000E-01
                       5.0000000000E-01 -1.1278493217E-31  6.8732900000E-01
                       5.0000000000E-01 -9.3691669479E-32  7.7787300000E-01
                      -1.0526112392E-31  5.0000000000E-01  8.6461800000E-01
                       5.0000000000E-01  5.0000000000E-01  8.2124600000E-01
                      -6.7420134542E-32 -6.7420134542E-32  8.2124600000E-01
            znucl       50.00000   34.00000   30.00000

================================================================================


- Timing analysis has been suppressed with timopt=0



================================================================================

 Suggested references for the acknowledgment of ABINIT usage.

 The users of ABINIT have little formal obligations with respect to the ABINIT group
 (those specified in the GNU General Public License, http://www.gnu.org/copyleft/gpl.txt).
 However, it is common practice in the scientific literature,
 to acknowledge the efforts of people that have made the research possible.
 In this spirit, please find below suggested citations of work written by ABINIT developers,
 corresponding to implementations inside of ABINIT that you have used in the present run.
 Note also that it will be of great value to readers of publications presenting these results,
 to read papers enabling them to understand the theoretical formalism and details
 of the ABINIT implementation.
 For information on why they are suggested, see also https://docs.abinit.org/theory/acknowledgments.
-
- [1] The Abinit project: Impact, environment and recent developments.
- Computer Phys. Comm. 248, 107042 (2020).
- X.Gonze, B. Amadon, G. Antonius, F.Arnardi, L.Baguet, J.-M.Beuken,
- J.Bieder, F.Bottin, J.Bouchet, E.Bousquet, N.Brouwer, F.Bruneval,
- G.Brunin, T.Cavignac, J.-B. Charraud, Wei Chen, M.Cote, S.Cottenier,
- J.Denier, G.Geneste, Ph.Ghosez, M.Giantomassi, Y.Gillet, O.Gingras,
- D.R.Hamann, G.Hautier, Xu He, N.Helbig, N.Holzwarth, Y.Jia, F.Jollet,
- W.Lafargue-Dit-Hauret, K.Lejaeghere, M.A.L.Marques, A.Martin, C.Martins,
- H.P.C. Miranda, F.Naccarato, K. Persson, G.Petretto, V.Planes, Y.Pouillon,
- S.Prokhorenko, F.Ricci, G.-M.Rignanese, A.H.Romero, M.M.Schmitt, M.Torrent,
- M.J.van Setten, B.Van Troeye, M.J.Verstraete, G.Zerah and J.W.Zwanzig
- Comment: the fifth generic paper describing the ABINIT project.
- Note that a version of this paper, that is not formatted for Computer Phys. Comm. 
- is available at https://www.abinit.org/sites/default/files/ABINIT20.pdf .
- The licence allows the authors to put it on the Web.
- DOI and bibtex: see https://docs.abinit.org/theory/bibliography/#gonze2020
-
- [2] First-principles responses of solids to atomic displacements and homogeneous electric fields:,
- implementation of a conjugate-gradient algorithm. X. Gonze, Phys. Rev. B55, 10337 (1997).
- Comment: Non-vanishing rfphon and/or rfelfd, in the norm-conserving case.
- DOI and bibtex: see https://docs.abinit.org/theory/bibliography/#gonze1997
-
- [3] Dynamical matrices, Born effective charges, dielectric permittivity tensors, and ,
- interatomic force constants from density-functional perturbation theory,
- X. Gonze and C. Lee, Phys. Rev. B55, 10355 (1997).
- Comment: Non-vanishing rfphon and/or rfelfd, in the norm-conserving case.
- DOI and bibtex: see https://docs.abinit.org/theory/bibliography/#gonze1997a
-
- [4] Optimized norm-conserving Vanderbilt pseudopotentials.
- D.R. Hamann, Phys. Rev. B 88, 085117 (2013).
- Comment: Some pseudopotential generated using the ONCVPSP code were used.
- DOI and bibtex: see https://docs.abinit.org/theory/bibliography/#hamann2013
-
- [5] ABINIT: Overview, and focus on selected capabilities
- J. Chem. Phys. 152, 124102 (2020).
- A. Romero, D.C. Allan, B. Amadon, G. Antonius, T. Applencourt, L.Baguet,
- J.Bieder, F.Bottin, J.Bouchet, E.Bousquet, F.Bruneval,
- G.Brunin, D.Caliste, M.Cote,
- J.Denier, C. Dreyer, Ph.Ghosez, M.Giantomassi, Y.Gillet, O.Gingras,
- D.R.Hamann, G.Hautier, F.Jollet, G. Jomard,
- A.Martin, 
- H.P.C. Miranda, F.Naccarato, G.Petretto, N.A. Pike, V.Planes,
- S.Prokhorenko, T. Rangel, F.Ricci, G.-M.Rignanese, M.Royo, M.Stengel, M.Torrent,
- M.J.van Setten, B.Van Troeye, M.J.Verstraete, J.Wiktor, J.W.Zwanziger, and X.Gonze.
- Comment: a global overview of ABINIT, with focus on selected capabilities .
- Note that a version of this paper, that is not formatted for J. Chem. Phys 
- is available at https://www.abinit.org/sites/default/files/ABINIT20_JPC.pdf .
- The licence allows the authors to put it on the Web.
- DOI and bibtex: see https://docs.abinit.org/theory/bibliography/#romero2020
-
- [6] Recent developments in the ABINIT software package.
- Computer Phys. Comm. 205, 106 (2016).
- X.Gonze, F.Jollet, F.Abreu Araujo, D.Adams, B.Amadon, T.Applencourt,
- C.Audouze, J.-M.Beuken, J.Bieder, A.Bokhanchuk, E.Bousquet, F.Bruneval
- D.Caliste, M.Cote, F.Dahm, F.Da Pieve, M.Delaveau, M.Di Gennaro,
- B.Dorado, C.Espejo, G.Geneste, L.Genovese, A.Gerossier, M.Giantomassi,
- Y.Gillet, D.R.Hamann, L.He, G.Jomard, J.Laflamme Janssen, S.Le Roux,
- A.Levitt, A.Lherbier, F.Liu, I.Lukacevic, A.Martin, C.Martins,
- M.J.T.Oliveira, S.Ponce, Y.Pouillon, T.Rangel, G.-M.Rignanese,
- A.H.Romero, B.Rousseau, O.Rubel, A.A.Shukri, M.Stankovski, M.Torrent,
- M.J.Van Setten, B.Van Troeye, M.J.Verstraete, D.Waroquier, J.Wiktor,
- B.Xu, A.Zhou, J.W.Zwanziger.
- Comment: the fourth generic paper describing the ABINIT project.
- Note that a version of this paper, that is not formatted for Computer Phys. Comm. 
- is available at https://www.abinit.org/sites/default/files/ABINIT16.pdf .
- The licence allows the authors to put it on the Web.
- DOI and bibtex: see https://docs.abinit.org/theory/bibliography/#gonze2016
-
- Proc.   0 individual time (sec): cpu=      38168.8  wall=      38217.4

================================================================================

 Calculation completed.
.Delivered   8 WARNINGs and   0 COMMENTs to log file.
+Overall time at end (sec) : cpu=     152683.3  wall=     152869.2
