  ABINIT 9.2.2
  
 DeprecationWarning: 

     The files file has been deprecated in Abinit9 and will be removed in Abinit10.
     Use the syntax `abinit t01.abi` where t01.abi is an input with pseudopotenials.

            pseudos = "al.psp8, as.psp8"


  Give name for formatted input file: 
Cs2TiI6.in
  Give name for formatted output file:
Cs2TiI6.out
  Give root name for generic input files:
Cs2TiI6i
  Give root name for generic output files:
Cs2TiI6o
  Give root name for generic temporary files:
Cs2TiI6

.Version 9.2.2 of ABINIT 
.(MPI version, prepared for a x86_64_linux_gnu9.3 computer) 

.Copyright (C) 1998-2020 ABINIT group . 
 ABINIT comes with ABSOLUTELY NO WARRANTY.
 It is free software, and you are welcome to redistribute it
 under certain conditions (GNU General Public License,
 see ~abinit/COPYING or http://www.gnu.org/copyleft/gpl.txt).

 ABINIT is a project of the Universite Catholique de Louvain,
 Corning Inc. and other collaborators, see ~abinit/doc/developers/contributors.txt .
 Please read https://docs.abinit.org/theory/acknowledgments for suggested
 acknowledgments of the ABINIT effort.
 For more information, see https://www.abinit.org .

.Starting date : Sun 17 Mar 2024.
- ( at 22h36 )
  
- The starting date is more than 3 years after the initial release
- of this version of ABINIT, namely Nov 2020.
- This version of ABINIT is not supported anymore.
- Action: please, switch to a more recent version of ABINIT.

 ++++++++++++++++++++++++++++++++++++++++++++++++++++++++++++++++++++++++++++++

 === Build Information === 
  Version       : 9.2.2
  Build target  : x86_64_linux_gnu9.3
  Build date    : 20210508

 === Compiler Suite === 
  C compiler       : gnu9.3
  C++ compiler     : gnu9.3
  Fortran compiler : gnu9.3
  CFLAGS           : -g -O2 -mtune=native -march=native
  CXXFLAGS         : -g -O2 -mtune=native -march=native
  FCFLAGS          : -g -ffree-line-length-none
  FC_LDFLAGS       : 

 === Optimizations === 
  Debug level        : basic
  Optimization level : standard
  Architecture       : unknown_unknown

 === Multicore === 
  Parallel build : yes
  Parallel I/O   : yes
  openMP support : 
  GPU support    : 

 === Connectors / Fallbacks === 
  LINALG flavor  : netlib
  FFT flavor     : goedecker
  HDF5           : yes
  NetCDF         : yes
  NetCDF Fortran : yes
  LibXC          : yes
  Wannier90      : no

 === Experimental features === 
  Exports             : 
  GW double-precision : 

 ++++++++++++++++++++++++++++++++++++++++++++++++++++++++++++++++++++++++++++++


 ++++++++++++++++++++++++++++++++++++++++++++++++++++++++++++++++++++++++++++++
 Default optimizations:
   -O2 -mtune=native -march=native


 Optimizations for 43_ptgroups:
   -O0


 ++++++++++++++++++++++++++++++++++++++++++++++++++++++++++++++++++++++++++++++


 ++++++++++++++++++++++++++++++++++++++++++++++++++++++++++++++++++++++++++++++
 CPP options activated during the build:

                    CC_GNU                   CXX_GNU                    FC_GNU
 
 HAVE_FC_ALLOCATABLE_DT...             HAVE_FC_ASYNC         HAVE_FC_BACKTRACE
 
  HAVE_FC_COMMAND_ARGUMENT      HAVE_FC_COMMAND_LINE        HAVE_FC_CONTIGUOUS
 
           HAVE_FC_CPUTIME              HAVE_FC_EXIT             HAVE_FC_FLUSH
 
             HAVE_FC_GAMMA            HAVE_FC_GETENV   HAVE_FC_IEEE_ARITHMETIC
 
   HAVE_FC_IEEE_EXCEPTIONS          HAVE_FC_INT_QUAD             HAVE_FC_IOMSG
 
     HAVE_FC_ISO_C_BINDING  HAVE_FC_ISO_FORTRAN_2008        HAVE_FC_LONG_LINES
 
        HAVE_FC_MOVE_ALLOC  HAVE_FC_ON_THE_FLY_SHAPE           HAVE_FC_PRIVATE
 
         HAVE_FC_PROTECTED           HAVE_FC_SHIFTLR         HAVE_FC_STREAM_IO
 
            HAVE_FC_SYSTEM          HAVE_FORTRAN2003                 HAVE_HDF5
 
        HAVE_LIBPAW_ABINIT      HAVE_LIBTETRA_ABINIT                HAVE_LIBXC
 
                  HAVE_MPI                 HAVE_MPI2       HAVE_MPI_IALLGATHER
 
       HAVE_MPI_IALLREDUCE        HAVE_MPI_IALLTOALL       HAVE_MPI_IALLTOALLV
 
           HAVE_MPI_IBCAST         HAVE_MPI_IGATHERV        HAVE_MPI_INTEGER16
 
               HAVE_MPI_IO HAVE_MPI_TYPE_CREATE_S...               HAVE_NETCDF
 
       HAVE_NETCDF_FORTRAN             HAVE_OS_LINUX         HAVE_TIMER_ABINIT
 
                  HAVE_XML                                                      
 ++++++++++++++++++++++++++++++++++++++++++++++++++++++++++++++++++++++++++++++

- input  file    -> Cs2TiI6.in
- output file    -> Cs2TiI6.out
- root for input  files -> Cs2TiI6i
- root for output files -> Cs2TiI6o

-instrng: 101 lines of input have been read from file Cs2TiI6.in


 Please give name of formatted atomic psp file (and finish with a newline character)
 For atom type 1, psp file is ../../../Psps_for_tests/ATOMICDATA_NC/Sn.psp8

 Please give name of formatted atomic psp file (and finish with a newline character)
 For atom type 2, psp file is ../../../Psps_for_tests/ATOMICDATA_NC/Se.psp8

 Please give name of formatted atomic psp file (and finish with a newline character)
 For atom type 3, psp file is ../../../Psps_for_tests/ATOMICDATA_NC/Zn.psp8
  read the values zionpsp= 14.0 , pspcod=   8 , lmax=   2
  read the values zionpsp= 16.0 , pspcod=   8 , lmax=   2
  read the values zionpsp= 20.0 , pspcod=   8 , lmax=   2

 inpspheads: deduce mpsang = 3, n1xccc = 2501.

======================================================= 
 invars1m : enter jdtset= 1

 symlatt: the Bravais lattice is tP (primitive tetragonal)
  xred   is defined in input file
 ingeo: takes atomic coordinates from input array xred

--- !WARNING
src_file: m_ingeo.F90
src_line: 887
message: |
    The tolerance on symmetries =   1.000E-05 is bigger than 1.0e-8.
    In order to avoid spurious effects, the atomic coordinates have been
    symmetrized before storing them in the dataset internal variable.
    So, do not be surprised by the fact that your input variables (xcart, xred, ...)
    do not correspond to the ones echoed by ABINIT, the latter being used to do the calculations.
    In order to avoid this symmetrization (e.g. for specific debugging/development), decrease tolsym to 1.0e-8 or lower.
...


 symlatt: the Bravais lattice is tP (primitive tetragonal)

 symlatt: the Bravais lattice is tP (primitive tetragonal)
 symspgr: spgroup=  99  P4 m m   (=C4v^1)
 symspgr: optical characteristics = uniaxial
 Optical axis (in reduced coordinates, real space ) :   0   0   1

======================================================= 
 invars1m : enter jdtset= 2

 symlatt: the Bravais lattice is tP (primitive tetragonal)
  xred   is defined in input file
 ingeo: takes atomic coordinates from input array xred

--- !WARNING
src_file: m_ingeo.F90
src_line: 887
message: |
    The tolerance on symmetries =   1.000E-05 is bigger than 1.0e-8.
    In order to avoid spurious effects, the atomic coordinates have been
    symmetrized before storing them in the dataset internal variable.
    So, do not be surprised by the fact that your input variables (xcart, xred, ...)
    do not correspond to the ones echoed by ABINIT, the latter being used to do the calculations.
    In order to avoid this symmetrization (e.g. for specific debugging/development), decrease tolsym to 1.0e-8 or lower.
...


 symlatt: the Bravais lattice is tP (primitive tetragonal)

 symlatt: the Bravais lattice is tP (primitive tetragonal)
 symspgr: spgroup=  99  P4 m m   (=C4v^1)
 symspgr: optical characteristics = uniaxial
 Optical axis (in reduced coordinates, real space ) :   0   0   1

======================================================= 
 invars1m : enter jdtset= 3

 symlatt: the Bravais lattice is tP (primitive tetragonal)
  xred   is defined in input file
 ingeo: takes atomic coordinates from input array xred

--- !WARNING
src_file: m_ingeo.F90
src_line: 887
message: |
    The tolerance on symmetries =   1.000E-05 is bigger than 1.0e-8.
    In order to avoid spurious effects, the atomic coordinates have been
    symmetrized before storing them in the dataset internal variable.
    So, do not be surprised by the fact that your input variables (xcart, xred, ...)
    do not correspond to the ones echoed by ABINIT, the latter being used to do the calculations.
    In order to avoid this symmetrization (e.g. for specific debugging/development), decrease tolsym to 1.0e-8 or lower.
...


 symlatt: the Bravais lattice is tP (primitive tetragonal)

 symlatt: the Bravais lattice is tP (primitive tetragonal)
 symspgr: spgroup=  99  P4 m m   (=C4v^1)
 symspgr: optical characteristics = uniaxial
 Optical axis (in reduced coordinates, real space ) :   0   0   1

======================================================= 
 invars1m : enter jdtset= 4

 symlatt: the Bravais lattice is tP (primitive tetragonal)
  xred   is defined in input file
 ingeo: takes atomic coordinates from input array xred

--- !WARNING
src_file: m_ingeo.F90
src_line: 887
message: |
    The tolerance on symmetries =   1.000E-05 is bigger than 1.0e-8.
    In order to avoid spurious effects, the atomic coordinates have been
    symmetrized before storing them in the dataset internal variable.
    So, do not be surprised by the fact that your input variables (xcart, xred, ...)
    do not correspond to the ones echoed by ABINIT, the latter being used to do the calculations.
    In order to avoid this symmetrization (e.g. for specific debugging/development), decrease tolsym to 1.0e-8 or lower.
...


 symlatt: the Bravais lattice is tP (primitive tetragonal)

 symlatt: the Bravais lattice is tP (primitive tetragonal)
 symspgr: spgroup=  99  P4 m m   (=C4v^1)
 symspgr: optical characteristics = uniaxial
 Optical axis (in reduced coordinates, real space ) :   0   0   1

======================================================= 
 invars1m : enter jdtset= 5

 symlatt: the Bravais lattice is tP (primitive tetragonal)
  xred   is defined in input file
 ingeo: takes atomic coordinates from input array xred

--- !WARNING
src_file: m_ingeo.F90
src_line: 887
message: |
    The tolerance on symmetries =   1.000E-05 is bigger than 1.0e-8.
    In order to avoid spurious effects, the atomic coordinates have been
    symmetrized before storing them in the dataset internal variable.
    So, do not be surprised by the fact that your input variables (xcart, xred, ...)
    do not correspond to the ones echoed by ABINIT, the latter being used to do the calculations.
    In order to avoid this symmetrization (e.g. for specific debugging/development), decrease tolsym to 1.0e-8 or lower.
...


 symlatt: the Bravais lattice is tP (primitive tetragonal)

 symlatt: the Bravais lattice is tP (primitive tetragonal)
 symspgr: spgroup=  99  P4 m m   (=C4v^1)
 symspgr: optical characteristics = uniaxial
 Optical axis (in reduced coordinates, real space ) :   0   0   1

======================================================= 
 invars1m : enter jdtset= 6

 symlatt: the Bravais lattice is tP (primitive tetragonal)
  xred   is defined in input file
 ingeo: takes atomic coordinates from input array xred

--- !WARNING
src_file: m_ingeo.F90
src_line: 887
message: |
    The tolerance on symmetries =   1.000E-05 is bigger than 1.0e-8.
    In order to avoid spurious effects, the atomic coordinates have been
    symmetrized before storing them in the dataset internal variable.
    So, do not be surprised by the fact that your input variables (xcart, xred, ...)
    do not correspond to the ones echoed by ABINIT, the latter being used to do the calculations.
    In order to avoid this symmetrization (e.g. for specific debugging/development), decrease tolsym to 1.0e-8 or lower.
...


 symlatt: the Bravais lattice is tP (primitive tetragonal)

 symlatt: the Bravais lattice is tP (primitive tetragonal)
 symspgr: spgroup=  99  P4 m m   (=C4v^1)
 symspgr: optical characteristics = uniaxial
 Optical axis (in reduced coordinates, real space ) :   0   0   1

--- !WARNING
src_file: m_mpinfo.F90
src_line: 2281
message: |
    nkpt*nsppol (10) is not a multiple of nproc_kpt (4)
    The k-point parallelisation is inefficient. (Ignore this warning if this is not a GS run)
...

 For input ecut=  2.250000E+01 best grid ngfft=      36      36     288
       max ecut=  2.411796E+01

 ==== FFT mesh ====
  FFT mesh divisions ........................    36   36  288
  Augmented FFT divisions ...................    37   37  288
  FFT algorithm .............................   112
  FFT cache size ............................    16
 getmpw: optimal value of mpw= 20051

--- !WARNING
src_file: m_mpinfo.F90
src_line: 2281
message: |
    nkpt*nsppol (10) is not a multiple of nproc_kpt (4)
    The k-point parallelisation is inefficient. (Ignore this warning if this is not a GS run)
...

 For input ecut=  2.250000E+01 best grid ngfft=      36      36     288
       max ecut=  2.411796E+01

 ==== FFT mesh ====
  FFT mesh divisions ........................    36   36  288
  Augmented FFT divisions ...................    37   37  288
  FFT algorithm .............................   112
  FFT cache size ............................    16
 getmpw: optimal value of mpw= 20051
 For input ecut=  2.250000E+01 best grid ngfft=      36      36     288
       max ecut=  2.411796E+01

 ==== FFT mesh ====
  FFT mesh divisions ........................    36   36  288
  Augmented FFT divisions ...................    37   37  288
  FFT algorithm .............................   112
  FFT cache size ............................    16
 getmpw: optimal value of mpw= 20051
 For input ecut=  2.250000E+01 best grid ngfft=      36      36     288
       max ecut=  2.411796E+01

 ==== FFT mesh ====
  FFT mesh divisions ........................    36   36  288
  Augmented FFT divisions ...................    37   37  288
  FFT algorithm .............................   112
  FFT cache size ............................    16
 getmpw: optimal value of mpw= 20051
 getmpw: optimal value of mpw= 20051
 For input ecut=  2.250000E+01 best grid ngfft=      36      36     288
       max ecut=  2.411796E+01

 ==== FFT mesh ====
  FFT mesh divisions ........................    36   36  288
  Augmented FFT divisions ...................    37   37  288
  FFT algorithm .............................   112
  FFT cache size ............................    16
 getmpw: optimal value of mpw= 20051
 getmpw: optimal value of mpw= 20051
 For input ecut=  2.250000E+01 best grid ngfft=      36      36     288
       max ecut=  2.411796E+01

 ==== FFT mesh ====
  FFT mesh divisions ........................    36   36  288
  Augmented FFT divisions ...................    37   37  288
  FFT algorithm .............................   112
  FFT cache size ............................    16
 getmpw: optimal value of mpw= 20051
 getmpw: optimal value of mpw= 20051

 DATASET    1 : space group P4 m m (# 99); Bravais tP (primitive tetrag.)

 getdim_nloc : deduce lmnmax  =  18, lnmax  =   6,
                      lmnmaxso=  18, lnmaxso=   6.
memory: analysis of memory needs
================================================================================
 Values of the parameters that define the memory need for DATASET  1.
     intxc =       0    ionmov =       0      iscf =       7    lmnmax =       6
     lnmax =       6     mgfft =     288  mpssoang =       3    mqgrid =   13909
     natom =      20  nloc_mem =       1    nspden =       1   nspinor =       1
    nsppol =       1      nsym =       8    n1xccc =    2501    ntypat =       3
    occopt =       1   xclevel =       2
-    mband =         159        mffmem =           1         mkmem =           3
       mpw =       20051          nfft =      373248          nkpt =          10
================================================================================
P This job should need less than                     272.473 Mbytes of memory.
  Rough estimation (10% accuracy) of disk space for files :
_ WF disk file :    486.469 Mbytes ; DEN or POT disk file :      2.850 Mbytes.
================================================================================

 Biggest array : cg(disk), with    145.9420 MBytes.
 memana : allocated an array of    145.942 Mbytes, for testing purposes.
 memana: allocated     272.473Mbytes, for testing purposes. 
 The job will continue.

 DATASET    2 : space group P4 m m (# 99); Bravais tP (primitive tetrag.)

 getdim_nloc : deduce lmnmax  =  18, lnmax  =   6,
                      lmnmaxso=  18, lnmaxso=   6.
memory: analysis of memory needs
================================================================================
 Values of the parameters that define the memory need for DATASET  2.
     intxc =       0    ionmov =       0      iscf =      -2    lmnmax =       6
     lnmax =       6     mgfft =     288  mpssoang =       3    mqgrid =   13909
     natom =      20  nloc_mem =       1    nspden =       1   nspinor =       1
    nsppol =       1      nsym =       8    n1xccc =    2501    ntypat =       3
    occopt =       1   xclevel =       2
-    mband =         350        mffmem =           1         mkmem =           3
       mpw =       20051          nfft =      373248          nkpt =          10
================================================================================
P This job should need less than                     401.492 Mbytes of memory.
  Rough estimation (10% accuracy) of disk space for files :
_ WF disk file :   1070.841 Mbytes ; DEN or POT disk file :      2.850 Mbytes.
================================================================================

 Biggest array : cg(disk), with    321.2537 MBytes.
 memana : allocated an array of    321.254 Mbytes, for testing purposes.
 memana: allocated     401.492Mbytes, for testing purposes. 
 The job will continue.

 DATASET    3 : space group P4 m m (# 99); Bravais tP (primitive tetrag.)

 getdim_nloc : deduce lmnmax  =  18, lnmax  =   6,
                      lmnmaxso=  18, lnmaxso=   6.
memory: analysis of memory needs
================================================================================
 Values of the parameters that define the memory need for DATASET  3.
     intxc =       0    ionmov =       0      iscf =      -2    lmnmax =       6
     lnmax =       6     mgfft =     288  mpssoang =       3    mqgrid =   13909
     natom =      20  nloc_mem =       1    nspden =       1   nspinor =       1
    nsppol =       1      nsym =       8    n1xccc =    2501    ntypat =       3
    occopt =       1   xclevel =       2
-    mband =         350        mffmem =           1         mkmem =          16
       mpw =       20051          nfft =      373248          nkpt =          64
================================================================================
P This job should need less than                    1807.236 Mbytes of memory.
  Rough estimation (10% accuracy) of disk space for files :
_ WF disk file :   6853.371 Mbytes ; DEN or POT disk file :      2.850 Mbytes.
================================================================================

 Biggest array : cg(disk), with   1713.3443 MBytes.
 memana : allocated an array of   1713.344 Mbytes, for testing purposes.
 memana: allocated    1807.236Mbytes, for testing purposes. 
 The job will continue.

 DATASET    4 : space group P4 m m (# 99); Bravais tP (primitive tetrag.)

 getdim_nloc : deduce lmnmax  =  18, lnmax  =   6,
                      lmnmaxso=  18, lnmaxso=   6.
 memorf : analysis of memory needs
================================================================================
 Values of the parameters that define the memory need for DATASET  4 (RF).
     intxc =       0      iscf =      -3    lmnmax =       6     lnmax =       6
     mgfft =     288  mpssoang =       3    mqgrid =   13909     natom =      20
  nloc_mem =       1    nspden =       1   nspinor =       1    nsppol =       1
      nsym =       8    n1xccc =    2501    ntypat =       3    occopt =       1
   xclevel =       2
-    mband =         350        mffmem =           1         mkmem =          16
-   mkqmem =          16        mk1mem =          16           mpw =       20051
      nfft =      373248          nkpt =          64
================================================================================
P This job should need less than                    5364.174 Mbytes of memory.
  Rough estimation (10% accuracy) of disk space for files :
_ WF disk file :  -1338.629 Mbytes ; DEN or POT disk file :      2.850 Mbytes.
================================================================================

 Biggest array : cg(disk), with   1713.3443 MBytes.
 memana : allocated an array of   1713.344 Mbytes, for testing purposes.
 memana: allocated    5364.174Mbytes, for testing purposes. 
 The job will continue.

 DATASET    5 : space group P4 m m (# 99); Bravais tP (primitive tetrag.)

 getdim_nloc : deduce lmnmax  =  18, lnmax  =   6,
                      lmnmaxso=  18, lnmaxso=   6.
 memorf : analysis of memory needs
================================================================================
 Values of the parameters that define the memory need for DATASET  5 (RF).
     intxc =       0      iscf =      -3    lmnmax =       6     lnmax =       6
     mgfft =     288  mpssoang =       3    mqgrid =   13909     natom =      20
  nloc_mem =       1    nspden =       1   nspinor =       1    nsppol =       1
      nsym =       8    n1xccc =    2501    ntypat =       3    occopt =       1
   xclevel =       2
-    mband =         350        mffmem =           1         mkmem =          16
-   mkqmem =          16        mk1mem =          16           mpw =       20051
      nfft =      373248          nkpt =          64
================================================================================
P This job should need less than                    5364.174 Mbytes of memory.
  Rough estimation (10% accuracy) of disk space for files :
_ WF disk file :  -1338.629 Mbytes ; DEN or POT disk file :      2.850 Mbytes.
================================================================================

 Biggest array : cg(disk), with   1713.3443 MBytes.
 memana : allocated an array of   1713.344 Mbytes, for testing purposes.
 memana: allocated    5364.174Mbytes, for testing purposes. 
 The job will continue.

 DATASET    6 : space group P4 m m (# 99); Bravais tP (primitive tetrag.)

 getdim_nloc : deduce lmnmax  =  18, lnmax  =   6,
                      lmnmaxso=  18, lnmaxso=   6.
 memorf : analysis of memory needs
================================================================================
 Values of the parameters that define the memory need for DATASET  6 (RF).
     intxc =       0      iscf =      -3    lmnmax =       6     lnmax =       6
     mgfft =     288  mpssoang =       3    mqgrid =   13909     natom =      20
  nloc_mem =       1    nspden =       1   nspinor =       1    nsppol =       1
      nsym =       8    n1xccc =    2501    ntypat =       3    occopt =       1
   xclevel =       2
-    mband =         350        mffmem =           1         mkmem =          16
-   mkqmem =          16        mk1mem =          16           mpw =       20051
      nfft =      373248          nkpt =          64
================================================================================
P This job should need less than                    5364.174 Mbytes of memory.
  Rough estimation (10% accuracy) of disk space for files :
_ WF disk file :  -1338.629 Mbytes ; DEN or POT disk file :      2.850 Mbytes.
================================================================================

 Biggest array : cg(disk), with   1713.3443 MBytes.
 memana : allocated an array of   1713.344 Mbytes, for testing purposes.
 memana: allocated    5364.174Mbytes, for testing purposes. 
 The job will continue.
--------------------------------------------------------------------------------
------------- Echo of variables that govern the present computation ------------
--------------------------------------------------------------------------------
-
- outvars: echo of selected default values                                      
-   iomode0 =  0 , fftalg0 =112 , wfoptalg0 =  0
-
- outvars: echo of global parameters not present in the input file              
-  max_nthreads =    0
-
 -outvars: echo values of preprocessed input variables --------
 
 These variables are accessible in NetCDF format (Cs2TiI6o_OUT.nc)

            acell      7.7624316804E+00  7.7624316804E+00  7.7624316804E+00 Bohr
              amu      1.18710000E+02  7.89600000E+01  6.53900000E+01
           diemac      1.20000000E+01
             ecut      2.25000000E+01 Hartree
-          fftalg         112
           getden1          0
           getden2          1
           getden3          1
           getden4          0
           getden5          0
           getden6          0
           getwfk1          0
           getwfk2          1
           getwfk3          2
           getwfk4          3
           getwfk5          3
           getwfk6          3
             iscf1          7
             iscf2         -2
             iscf3         -2
             iscf4         -3
             iscf5         -3
             iscf6         -3
              ixc          11
           jdtset        1    2    3    4    5    6
              kpt1     6.25000000E-02  6.25000000E-02  2.50000000E-01
                       1.87500000E-01  6.25000000E-02  2.50000000E-01
                       3.12500000E-01  6.25000000E-02  2.50000000E-01
                       4.37500000E-01  6.25000000E-02  2.50000000E-01
                       1.87500000E-01  1.87500000E-01  2.50000000E-01
                       3.12500000E-01  1.87500000E-01  2.50000000E-01
                       4.37500000E-01  1.87500000E-01  2.50000000E-01
                       3.12500000E-01  3.12500000E-01  2.50000000E-01
                       4.37500000E-01  3.12500000E-01  2.50000000E-01
                       4.37500000E-01  4.37500000E-01  2.50000000E-01
              kpt2     6.25000000E-02  6.25000000E-02  2.50000000E-01
                       1.87500000E-01  6.25000000E-02  2.50000000E-01
                       3.12500000E-01  6.25000000E-02  2.50000000E-01
                       4.37500000E-01  6.25000000E-02  2.50000000E-01
                       1.87500000E-01  1.87500000E-01  2.50000000E-01
                       3.12500000E-01  1.87500000E-01  2.50000000E-01
                       4.37500000E-01  1.87500000E-01  2.50000000E-01
                       3.12500000E-01  3.12500000E-01  2.50000000E-01
                       4.37500000E-01  3.12500000E-01  2.50000000E-01
                       4.37500000E-01  4.37500000E-01  2.50000000E-01
              kpt3     6.25000000E-02  6.25000000E-02  2.50000000E-01
                       1.87500000E-01  6.25000000E-02  2.50000000E-01
                       3.12500000E-01  6.25000000E-02  2.50000000E-01
                       4.37500000E-01  6.25000000E-02  2.50000000E-01
                      -4.37500000E-01  6.25000000E-02  2.50000000E-01
                      -3.12500000E-01  6.25000000E-02  2.50000000E-01
                      -1.87500000E-01  6.25000000E-02  2.50000000E-01
                      -6.25000000E-02  6.25000000E-02  2.50000000E-01
                       6.25000000E-02  1.87500000E-01  2.50000000E-01
                       1.87500000E-01  1.87500000E-01  2.50000000E-01
                       3.12500000E-01  1.87500000E-01  2.50000000E-01
                       4.37500000E-01  1.87500000E-01  2.50000000E-01
                      -4.37500000E-01  1.87500000E-01  2.50000000E-01
                      -3.12500000E-01  1.87500000E-01  2.50000000E-01
                      -1.87500000E-01  1.87500000E-01  2.50000000E-01
                      -6.25000000E-02  1.87500000E-01  2.50000000E-01
                       6.25000000E-02  3.12500000E-01  2.50000000E-01
                       1.87500000E-01  3.12500000E-01  2.50000000E-01
                       3.12500000E-01  3.12500000E-01  2.50000000E-01
                       4.37500000E-01  3.12500000E-01  2.50000000E-01
                      -4.37500000E-01  3.12500000E-01  2.50000000E-01
                      -3.12500000E-01  3.12500000E-01  2.50000000E-01
                      -1.87500000E-01  3.12500000E-01  2.50000000E-01
                      -6.25000000E-02  3.12500000E-01  2.50000000E-01
                       6.25000000E-02  4.37500000E-01  2.50000000E-01
                       1.87500000E-01  4.37500000E-01  2.50000000E-01
                       3.12500000E-01  4.37500000E-01  2.50000000E-01
                       4.37500000E-01  4.37500000E-01  2.50000000E-01
                      -4.37500000E-01  4.37500000E-01  2.50000000E-01
                      -3.12500000E-01  4.37500000E-01  2.50000000E-01
                      -1.87500000E-01  4.37500000E-01  2.50000000E-01
                      -6.25000000E-02  4.37500000E-01  2.50000000E-01
                       6.25000000E-02 -4.37500000E-01  2.50000000E-01
                       1.87500000E-01 -4.37500000E-01  2.50000000E-01
                       3.12500000E-01 -4.37500000E-01  2.50000000E-01
                       4.37500000E-01 -4.37500000E-01  2.50000000E-01
                      -4.37500000E-01 -4.37500000E-01  2.50000000E-01
                      -3.12500000E-01 -4.37500000E-01  2.50000000E-01
                      -1.87500000E-01 -4.37500000E-01  2.50000000E-01
                      -6.25000000E-02 -4.37500000E-01  2.50000000E-01
                       6.25000000E-02 -3.12500000E-01  2.50000000E-01
                       1.87500000E-01 -3.12500000E-01  2.50000000E-01
                       3.12500000E-01 -3.12500000E-01  2.50000000E-01
                       4.37500000E-01 -3.12500000E-01  2.50000000E-01
                      -4.37500000E-01 -3.12500000E-01  2.50000000E-01
                      -3.12500000E-01 -3.12500000E-01  2.50000000E-01
                      -1.87500000E-01 -3.12500000E-01  2.50000000E-01
                      -6.25000000E-02 -3.12500000E-01  2.50000000E-01
                       6.25000000E-02 -1.87500000E-01  2.50000000E-01
                       1.87500000E-01 -1.87500000E-01  2.50000000E-01
              kpt4     6.25000000E-02  6.25000000E-02  2.50000000E-01
                       1.87500000E-01  6.25000000E-02  2.50000000E-01
                       3.12500000E-01  6.25000000E-02  2.50000000E-01
                       4.37500000E-01  6.25000000E-02  2.50000000E-01
                      -4.37500000E-01  6.25000000E-02  2.50000000E-01
                      -3.12500000E-01  6.25000000E-02  2.50000000E-01
                      -1.87500000E-01  6.25000000E-02  2.50000000E-01
                      -6.25000000E-02  6.25000000E-02  2.50000000E-01
                       6.25000000E-02  1.87500000E-01  2.50000000E-01
                       1.87500000E-01  1.87500000E-01  2.50000000E-01
                       3.12500000E-01  1.87500000E-01  2.50000000E-01
                       4.37500000E-01  1.87500000E-01  2.50000000E-01
                      -4.37500000E-01  1.87500000E-01  2.50000000E-01
                      -3.12500000E-01  1.87500000E-01  2.50000000E-01
                      -1.87500000E-01  1.87500000E-01  2.50000000E-01
                      -6.25000000E-02  1.87500000E-01  2.50000000E-01
                       6.25000000E-02  3.12500000E-01  2.50000000E-01
                       1.87500000E-01  3.12500000E-01  2.50000000E-01
                       3.12500000E-01  3.12500000E-01  2.50000000E-01
                       4.37500000E-01  3.12500000E-01  2.50000000E-01
                      -4.37500000E-01  3.12500000E-01  2.50000000E-01
                      -3.12500000E-01  3.12500000E-01  2.50000000E-01
                      -1.87500000E-01  3.12500000E-01  2.50000000E-01
                      -6.25000000E-02  3.12500000E-01  2.50000000E-01
                       6.25000000E-02  4.37500000E-01  2.50000000E-01
                       1.87500000E-01  4.37500000E-01  2.50000000E-01
                       3.12500000E-01  4.37500000E-01  2.50000000E-01
                       4.37500000E-01  4.37500000E-01  2.50000000E-01
                      -4.37500000E-01  4.37500000E-01  2.50000000E-01
                      -3.12500000E-01  4.37500000E-01  2.50000000E-01
                      -1.87500000E-01  4.37500000E-01  2.50000000E-01
                      -6.25000000E-02  4.37500000E-01  2.50000000E-01
                       6.25000000E-02 -4.37500000E-01  2.50000000E-01
                       1.87500000E-01 -4.37500000E-01  2.50000000E-01
                       3.12500000E-01 -4.37500000E-01  2.50000000E-01
                       4.37500000E-01 -4.37500000E-01  2.50000000E-01
                      -4.37500000E-01 -4.37500000E-01  2.50000000E-01
                      -3.12500000E-01 -4.37500000E-01  2.50000000E-01
                      -1.87500000E-01 -4.37500000E-01  2.50000000E-01
                      -6.25000000E-02 -4.37500000E-01  2.50000000E-01
                       6.25000000E-02 -3.12500000E-01  2.50000000E-01
                       1.87500000E-01 -3.12500000E-01  2.50000000E-01
                       3.12500000E-01 -3.12500000E-01  2.50000000E-01
                       4.37500000E-01 -3.12500000E-01  2.50000000E-01
                      -4.37500000E-01 -3.12500000E-01  2.50000000E-01
                      -3.12500000E-01 -3.12500000E-01  2.50000000E-01
                      -1.87500000E-01 -3.12500000E-01  2.50000000E-01
                      -6.25000000E-02 -3.12500000E-01  2.50000000E-01
                       6.25000000E-02 -1.87500000E-01  2.50000000E-01
                       1.87500000E-01 -1.87500000E-01  2.50000000E-01
              kpt5     6.25000000E-02  6.25000000E-02  2.50000000E-01
                       1.87500000E-01  6.25000000E-02  2.50000000E-01
                       3.12500000E-01  6.25000000E-02  2.50000000E-01
                       4.37500000E-01  6.25000000E-02  2.50000000E-01
                      -4.37500000E-01  6.25000000E-02  2.50000000E-01
                      -3.12500000E-01  6.25000000E-02  2.50000000E-01
                      -1.87500000E-01  6.25000000E-02  2.50000000E-01
                      -6.25000000E-02  6.25000000E-02  2.50000000E-01
                       6.25000000E-02  1.87500000E-01  2.50000000E-01
                       1.87500000E-01  1.87500000E-01  2.50000000E-01
                       3.12500000E-01  1.87500000E-01  2.50000000E-01
                       4.37500000E-01  1.87500000E-01  2.50000000E-01
                      -4.37500000E-01  1.87500000E-01  2.50000000E-01
                      -3.12500000E-01  1.87500000E-01  2.50000000E-01
                      -1.87500000E-01  1.87500000E-01  2.50000000E-01
                      -6.25000000E-02  1.87500000E-01  2.50000000E-01
                       6.25000000E-02  3.12500000E-01  2.50000000E-01
                       1.87500000E-01  3.12500000E-01  2.50000000E-01
                       3.12500000E-01  3.12500000E-01  2.50000000E-01
                       4.37500000E-01  3.12500000E-01  2.50000000E-01
                      -4.37500000E-01  3.12500000E-01  2.50000000E-01
                      -3.12500000E-01  3.12500000E-01  2.50000000E-01
                      -1.87500000E-01  3.12500000E-01  2.50000000E-01
                      -6.25000000E-02  3.12500000E-01  2.50000000E-01
                       6.25000000E-02  4.37500000E-01  2.50000000E-01
                       1.87500000E-01  4.37500000E-01  2.50000000E-01
                       3.12500000E-01  4.37500000E-01  2.50000000E-01
                       4.37500000E-01  4.37500000E-01  2.50000000E-01
                      -4.37500000E-01  4.37500000E-01  2.50000000E-01
                      -3.12500000E-01  4.37500000E-01  2.50000000E-01
                      -1.87500000E-01  4.37500000E-01  2.50000000E-01
                      -6.25000000E-02  4.37500000E-01  2.50000000E-01
                       6.25000000E-02 -4.37500000E-01  2.50000000E-01
                       1.87500000E-01 -4.37500000E-01  2.50000000E-01
                       3.12500000E-01 -4.37500000E-01  2.50000000E-01
                       4.37500000E-01 -4.37500000E-01  2.50000000E-01
                      -4.37500000E-01 -4.37500000E-01  2.50000000E-01
                      -3.12500000E-01 -4.37500000E-01  2.50000000E-01
                      -1.87500000E-01 -4.37500000E-01  2.50000000E-01
                      -6.25000000E-02 -4.37500000E-01  2.50000000E-01
                       6.25000000E-02 -3.12500000E-01  2.50000000E-01
                       1.87500000E-01 -3.12500000E-01  2.50000000E-01
                       3.12500000E-01 -3.12500000E-01  2.50000000E-01
                       4.37500000E-01 -3.12500000E-01  2.50000000E-01
                      -4.37500000E-01 -3.12500000E-01  2.50000000E-01
                      -3.12500000E-01 -3.12500000E-01  2.50000000E-01
                      -1.87500000E-01 -3.12500000E-01  2.50000000E-01
                      -6.25000000E-02 -3.12500000E-01  2.50000000E-01
                       6.25000000E-02 -1.87500000E-01  2.50000000E-01
                       1.87500000E-01 -1.87500000E-01  2.50000000E-01
              kpt6     6.25000000E-02  6.25000000E-02  2.50000000E-01
                       1.87500000E-01  6.25000000E-02  2.50000000E-01
                       3.12500000E-01  6.25000000E-02  2.50000000E-01
                       4.37500000E-01  6.25000000E-02  2.50000000E-01
                      -4.37500000E-01  6.25000000E-02  2.50000000E-01
                      -3.12500000E-01  6.25000000E-02  2.50000000E-01
                      -1.87500000E-01  6.25000000E-02  2.50000000E-01
                      -6.25000000E-02  6.25000000E-02  2.50000000E-01
                       6.25000000E-02  1.87500000E-01  2.50000000E-01
                       1.87500000E-01  1.87500000E-01  2.50000000E-01
                       3.12500000E-01  1.87500000E-01  2.50000000E-01
                       4.37500000E-01  1.87500000E-01  2.50000000E-01
                      -4.37500000E-01  1.87500000E-01  2.50000000E-01
                      -3.12500000E-01  1.87500000E-01  2.50000000E-01
                      -1.87500000E-01  1.87500000E-01  2.50000000E-01
                      -6.25000000E-02  1.87500000E-01  2.50000000E-01
                       6.25000000E-02  3.12500000E-01  2.50000000E-01
                       1.87500000E-01  3.12500000E-01  2.50000000E-01
                       3.12500000E-01  3.12500000E-01  2.50000000E-01
                       4.37500000E-01  3.12500000E-01  2.50000000E-01
                      -4.37500000E-01  3.12500000E-01  2.50000000E-01
                      -3.12500000E-01  3.12500000E-01  2.50000000E-01
                      -1.87500000E-01  3.12500000E-01  2.50000000E-01
                      -6.25000000E-02  3.12500000E-01  2.50000000E-01
                       6.25000000E-02  4.37500000E-01  2.50000000E-01
                       1.87500000E-01  4.37500000E-01  2.50000000E-01
                       3.12500000E-01  4.37500000E-01  2.50000000E-01
                       4.37500000E-01  4.37500000E-01  2.50000000E-01
                      -4.37500000E-01  4.37500000E-01  2.50000000E-01
                      -3.12500000E-01  4.37500000E-01  2.50000000E-01
                      -1.87500000E-01  4.37500000E-01  2.50000000E-01
                      -6.25000000E-02  4.37500000E-01  2.50000000E-01
                       6.25000000E-02 -4.37500000E-01  2.50000000E-01
                       1.87500000E-01 -4.37500000E-01  2.50000000E-01
                       3.12500000E-01 -4.37500000E-01  2.50000000E-01
                       4.37500000E-01 -4.37500000E-01  2.50000000E-01
                      -4.37500000E-01 -4.37500000E-01  2.50000000E-01
                      -3.12500000E-01 -4.37500000E-01  2.50000000E-01
                      -1.87500000E-01 -4.37500000E-01  2.50000000E-01
                      -6.25000000E-02 -4.37500000E-01  2.50000000E-01
                       6.25000000E-02 -3.12500000E-01  2.50000000E-01
                       1.87500000E-01 -3.12500000E-01  2.50000000E-01
                       3.12500000E-01 -3.12500000E-01  2.50000000E-01
                       4.37500000E-01 -3.12500000E-01  2.50000000E-01
                      -4.37500000E-01 -3.12500000E-01  2.50000000E-01
                      -3.12500000E-01 -3.12500000E-01  2.50000000E-01
                      -1.87500000E-01 -3.12500000E-01  2.50000000E-01
                      -6.25000000E-02 -3.12500000E-01  2.50000000E-01
                       6.25000000E-02 -1.87500000E-01  2.50000000E-01
                       1.87500000E-01 -1.87500000E-01  2.50000000E-01
                       outvar_i_n : Printing only first  50 k-points.
           kptopt1          1
           kptopt2          1
           kptopt3          2
           kptopt4          2
           kptopt5          2
           kptopt6          2
         kptrlatt        8    0    0      0    8    0      0    0    2
          kptrlen      6.20994534E+01
P           mkmem1          3
P           mkmem2          3
P           mkmem3         16
P           mkmem4         16
P           mkmem5         16
P           mkmem6         16
P          mkqmem1          3
P          mkqmem2          3
P          mkqmem3         16
P          mkqmem4         16
P          mkqmem5         16
P          mkqmem6         16
P          mk1mem1          3
P          mk1mem2          3
P          mk1mem3         16
P          mk1mem4         16
P          mk1mem5         16
P          mk1mem6         16
            natom          20
            nband1        159
            nband2        350
            nband3        350
            nband4        350
            nband5        350
            nband6        350
           nbdbuf1          0
           nbdbuf2          2
           nbdbuf3          2
           nbdbuf4          2
           nbdbuf5          2
           nbdbuf6          2
           ndtset           6
            ngfft          36      36     288
             nkpt1         10
             nkpt2         10
             nkpt3         64
             nkpt4         64
             nkpt5         64
             nkpt6         64
            nline1          4
            nline2          4
            nline3          4
            nline4          0
            nline5          0
            nline6          0
             nqpt1          0
             nqpt2          0
             nqpt3          0
             nqpt4          1
             nqpt5          1
             nqpt6          1
            nstep1        400
            nstep2        200
            nstep3        200
            nstep4          1
            nstep5          1
            nstep6          1
             nsym           8
           ntypat           3
              occ1     2.000000  2.000000  2.000000  2.000000  2.000000  2.000000
                       2.000000  2.000000  2.000000  2.000000  2.000000  2.000000
                       2.000000  2.000000  2.000000  2.000000  2.000000  2.000000
                       2.000000  2.000000  2.000000  2.000000  2.000000  2.000000
                       2.000000  2.000000  2.000000  2.000000  2.000000  2.000000
                       2.000000  2.000000  2.000000  2.000000  2.000000  2.000000
                       2.000000  2.000000  2.000000  2.000000  2.000000  2.000000
                       2.000000  2.000000  2.000000  2.000000  2.000000  2.000000
                       2.000000  2.000000  2.000000  2.000000  2.000000  2.000000
                       2.000000  2.000000  2.000000  2.000000  2.000000  2.000000
                       2.000000  2.000000  2.000000  2.000000  2.000000  2.000000
                       2.000000  2.000000  2.000000  2.000000  2.000000  2.000000
                       2.000000  2.000000  2.000000  2.000000  2.000000  2.000000
                       2.000000  2.000000  2.000000  2.000000  2.000000  2.000000
                       2.000000  2.000000  2.000000  2.000000  2.000000  2.000000
                       2.000000  2.000000  2.000000  2.000000  2.000000  2.000000
                       2.000000  2.000000  2.000000  2.000000  2.000000  2.000000
                       2.000000  2.000000  2.000000  2.000000  2.000000  2.000000
                       2.000000  2.000000  2.000000  2.000000  2.000000  2.000000
                       2.000000  2.000000  2.000000  2.000000  2.000000  2.000000
                       2.000000  2.000000  2.000000  2.000000  2.000000  2.000000
                       2.000000  2.000000  2.000000  2.000000  2.000000  2.000000
                       2.000000  2.000000  2.000000  2.000000  2.000000  2.000000
                       2.000000  2.000000  2.000000  2.000000  2.000000  2.000000
                       2.000000  2.000000  2.000000  2.000000  2.000000  2.000000
                       2.000000  2.000000  2.000000  2.000000  2.000000  2.000000
                       0.000000  0.000000  0.000000
              occ4     2.000000  2.000000  2.000000  2.000000  2.000000  2.000000
                       2.000000  2.000000  2.000000  2.000000  2.000000  2.000000
                       2.000000  2.000000  2.000000  2.000000  2.000000  2.000000
                       2.000000  2.000000  2.000000  2.000000  2.000000  2.000000
                       2.000000  2.000000  2.000000  2.000000  2.000000  2.000000
                       2.000000  2.000000  2.000000  2.000000  2.000000  2.000000
                       2.000000  2.000000  2.000000  2.000000  2.000000  2.000000
                       2.000000  2.000000  2.000000  2.000000  2.000000  2.000000
                       2.000000  2.000000  2.000000  2.000000  2.000000  2.000000
                       2.000000  2.000000  2.000000  2.000000  2.000000  2.000000
                       2.000000  2.000000  2.000000  2.000000  2.000000  2.000000
                       2.000000  2.000000  2.000000  2.000000  2.000000  2.000000
                       2.000000  2.000000  2.000000  2.000000  2.000000  2.000000
                       2.000000  2.000000  2.000000  2.000000  2.000000  2.000000
                       2.000000  2.000000  2.000000  2.000000  2.000000  2.000000
                       2.000000  2.000000  2.000000  2.000000  2.000000  2.000000
                       2.000000  2.000000  2.000000  2.000000  2.000000  2.000000
                       2.000000  2.000000  2.000000  2.000000  2.000000  2.000000
                       2.000000  2.000000  2.000000  2.000000  2.000000  2.000000
                       2.000000  2.000000  2.000000  2.000000  2.000000  2.000000
                       2.000000  2.000000  2.000000  2.000000  2.000000  2.000000
                       2.000000  2.000000  2.000000  2.000000  2.000000  2.000000
                       2.000000  2.000000  2.000000  2.000000  2.000000  2.000000
                       2.000000  2.000000  2.000000  2.000000  2.000000  2.000000
                       2.000000  2.000000  2.000000  2.000000  2.000000  2.000000
                       2.000000  2.000000  2.000000  2.000000  2.000000  2.000000
                       0.000000  0.000000  0.000000  0.000000  0.000000  0.000000
                       0.000000  0.000000  0.000000  0.000000  0.000000  0.000000
                       0.000000  0.000000  0.000000  0.000000  0.000000  0.000000
                       0.000000  0.000000  0.000000  0.000000  0.000000  0.000000
                       0.000000  0.000000  0.000000  0.000000  0.000000  0.000000
                       0.000000  0.000000  0.000000  0.000000  0.000000  0.000000
                       0.000000  0.000000  0.000000  0.000000  0.000000  0.000000
                       0.000000  0.000000  0.000000  0.000000  0.000000  0.000000
                       0.000000  0.000000  0.000000  0.000000  0.000000  0.000000
                       0.000000  0.000000  0.000000  0.000000  0.000000  0.000000
                       0.000000  0.000000  0.000000  0.000000  0.000000  0.000000
                       0.000000  0.000000  0.000000  0.000000  0.000000  0.000000
                       0.000000  0.000000  0.000000  0.000000  0.000000  0.000000
                       0.000000  0.000000  0.000000  0.000000  0.000000  0.000000
                       0.000000  0.000000  0.000000  0.000000  0.000000  0.000000
                       0.000000  0.000000  0.000000  0.000000  0.000000  0.000000
                       0.000000  0.000000  0.000000  0.000000  0.000000  0.000000
                       0.000000  0.000000  0.000000  0.000000  0.000000  0.000000
                       0.000000  0.000000  0.000000  0.000000  0.000000  0.000000
                       0.000000  0.000000  0.000000  0.000000  0.000000  0.000000
                       0.000000  0.000000  0.000000  0.000000  0.000000  0.000000
                       0.000000  0.000000  0.000000  0.000000  0.000000  0.000000
                       0.000000  0.000000  0.000000  0.000000  0.000000  0.000000
                       0.000000  0.000000  0.000000  0.000000  0.000000  0.000000
                       0.000000  0.000000  0.000000  0.000000  0.000000  0.000000
                       0.000000  0.000000  0.000000  0.000000  0.000000  0.000000
                       0.000000  0.000000  0.000000  0.000000  0.000000  0.000000
                       0.000000  0.000000  0.000000  0.000000  0.000000  0.000000
                       0.000000  0.000000  0.000000  0.000000  0.000000  0.000000
                       0.000000  0.000000  0.000000  0.000000  0.000000  0.000000
                       0.000000  0.000000  0.000000  0.000000  0.000000  0.000000
                       0.000000  0.000000  0.000000  0.000000  0.000000  0.000000
                       0.000000  0.000000
              occ5     2.000000  2.000000  2.000000  2.000000  2.000000  2.000000
                       2.000000  2.000000  2.000000  2.000000  2.000000  2.000000
                       2.000000  2.000000  2.000000  2.000000  2.000000  2.000000
                       2.000000  2.000000  2.000000  2.000000  2.000000  2.000000
                       2.000000  2.000000  2.000000  2.000000  2.000000  2.000000
                       2.000000  2.000000  2.000000  2.000000  2.000000  2.000000
                       2.000000  2.000000  2.000000  2.000000  2.000000  2.000000
                       2.000000  2.000000  2.000000  2.000000  2.000000  2.000000
                       2.000000  2.000000  2.000000  2.000000  2.000000  2.000000
                       2.000000  2.000000  2.000000  2.000000  2.000000  2.000000
                       2.000000  2.000000  2.000000  2.000000  2.000000  2.000000
                       2.000000  2.000000  2.000000  2.000000  2.000000  2.000000
                       2.000000  2.000000  2.000000  2.000000  2.000000  2.000000
                       2.000000  2.000000  2.000000  2.000000  2.000000  2.000000
                       2.000000  2.000000  2.000000  2.000000  2.000000  2.000000
                       2.000000  2.000000  2.000000  2.000000  2.000000  2.000000
                       2.000000  2.000000  2.000000  2.000000  2.000000  2.000000
                       2.000000  2.000000  2.000000  2.000000  2.000000  2.000000
                       2.000000  2.000000  2.000000  2.000000  2.000000  2.000000
                       2.000000  2.000000  2.000000  2.000000  2.000000  2.000000
                       2.000000  2.000000  2.000000  2.000000  2.000000  2.000000
                       2.000000  2.000000  2.000000  2.000000  2.000000  2.000000
                       2.000000  2.000000  2.000000  2.000000  2.000000  2.000000
                       2.000000  2.000000  2.000000  2.000000  2.000000  2.000000
                       2.000000  2.000000  2.000000  2.000000  2.000000  2.000000
                       2.000000  2.000000  2.000000  2.000000  2.000000  2.000000
                       0.000000  0.000000  0.000000  0.000000  0.000000  0.000000
                       0.000000  0.000000  0.000000  0.000000  0.000000  0.000000
                       0.000000  0.000000  0.000000  0.000000  0.000000  0.000000
                       0.000000  0.000000  0.000000  0.000000  0.000000  0.000000
                       0.000000  0.000000  0.000000  0.000000  0.000000  0.000000
                       0.000000  0.000000  0.000000  0.000000  0.000000  0.000000
                       0.000000  0.000000  0.000000  0.000000  0.000000  0.000000
                       0.000000  0.000000  0.000000  0.000000  0.000000  0.000000
                       0.000000  0.000000  0.000000  0.000000  0.000000  0.000000
                       0.000000  0.000000  0.000000  0.000000  0.000000  0.000000
                       0.000000  0.000000  0.000000  0.000000  0.000000  0.000000
                       0.000000  0.000000  0.000000  0.000000  0.000000  0.000000
                       0.000000  0.000000  0.000000  0.000000  0.000000  0.000000
                       0.000000  0.000000  0.000000  0.000000  0.000000  0.000000
                       0.000000  0.000000  0.000000  0.000000  0.000000  0.000000
                       0.000000  0.000000  0.000000  0.000000  0.000000  0.000000
                       0.000000  0.000000  0.000000  0.000000  0.000000  0.000000
                       0.000000  0.000000  0.000000  0.000000  0.000000  0.000000
                       0.000000  0.000000  0.000000  0.000000  0.000000  0.000000
                       0.000000  0.000000  0.000000  0.000000  0.000000  0.000000
                       0.000000  0.000000  0.000000  0.000000  0.000000  0.000000
                       0.000000  0.000000  0.000000  0.000000  0.000000  0.000000
                       0.000000  0.000000  0.000000  0.000000  0.000000  0.000000
                       0.000000  0.000000  0.000000  0.000000  0.000000  0.000000
                       0.000000  0.000000  0.000000  0.000000  0.000000  0.000000
                       0.000000  0.000000  0.000000  0.000000  0.000000  0.000000
                       0.000000  0.000000  0.000000  0.000000  0.000000  0.000000
                       0.000000  0.000000  0.000000  0.000000  0.000000  0.000000
                       0.000000  0.000000  0.000000  0.000000  0.000000  0.000000
                       0.000000  0.000000  0.000000  0.000000  0.000000  0.000000
                       0.000000  0.000000  0.000000  0.000000  0.000000  0.000000
                       0.000000  0.000000  0.000000  0.000000  0.000000  0.000000
                       0.000000  0.000000
              occ6     2.000000  2.000000  2.000000  2.000000  2.000000  2.000000
                       2.000000  2.000000  2.000000  2.000000  2.000000  2.000000
                       2.000000  2.000000  2.000000  2.000000  2.000000  2.000000
                       2.000000  2.000000  2.000000  2.000000  2.000000  2.000000
                       2.000000  2.000000  2.000000  2.000000  2.000000  2.000000
                       2.000000  2.000000  2.000000  2.000000  2.000000  2.000000
                       2.000000  2.000000  2.000000  2.000000  2.000000  2.000000
                       2.000000  2.000000  2.000000  2.000000  2.000000  2.000000
                       2.000000  2.000000  2.000000  2.000000  2.000000  2.000000
                       2.000000  2.000000  2.000000  2.000000  2.000000  2.000000
                       2.000000  2.000000  2.000000  2.000000  2.000000  2.000000
                       2.000000  2.000000  2.000000  2.000000  2.000000  2.000000
                       2.000000  2.000000  2.000000  2.000000  2.000000  2.000000
                       2.000000  2.000000  2.000000  2.000000  2.000000  2.000000
                       2.000000  2.000000  2.000000  2.000000  2.000000  2.000000
                       2.000000  2.000000  2.000000  2.000000  2.000000  2.000000
                       2.000000  2.000000  2.000000  2.000000  2.000000  2.000000
                       2.000000  2.000000  2.000000  2.000000  2.000000  2.000000
                       2.000000  2.000000  2.000000  2.000000  2.000000  2.000000
                       2.000000  2.000000  2.000000  2.000000  2.000000  2.000000
                       2.000000  2.000000  2.000000  2.000000  2.000000  2.000000
                       2.000000  2.000000  2.000000  2.000000  2.000000  2.000000
                       2.000000  2.000000  2.000000  2.000000  2.000000  2.000000
                       2.000000  2.000000  2.000000  2.000000  2.000000  2.000000
                       2.000000  2.000000  2.000000  2.000000  2.000000  2.000000
                       2.000000  2.000000  2.000000  2.000000  2.000000  2.000000
                       0.000000  0.000000  0.000000  0.000000  0.000000  0.000000
                       0.000000  0.000000  0.000000  0.000000  0.000000  0.000000
                       0.000000  0.000000  0.000000  0.000000  0.000000  0.000000
                       0.000000  0.000000  0.000000  0.000000  0.000000  0.000000
                       0.000000  0.000000  0.000000  0.000000  0.000000  0.000000
                       0.000000  0.000000  0.000000  0.000000  0.000000  0.000000
                       0.000000  0.000000  0.000000  0.000000  0.000000  0.000000
                       0.000000  0.000000  0.000000  0.000000  0.000000  0.000000
                       0.000000  0.000000  0.000000  0.000000  0.000000  0.000000
                       0.000000  0.000000  0.000000  0.000000  0.000000  0.000000
                       0.000000  0.000000  0.000000  0.000000  0.000000  0.000000
                       0.000000  0.000000  0.000000  0.000000  0.000000  0.000000
                       0.000000  0.000000  0.000000  0.000000  0.000000  0.000000
                       0.000000  0.000000  0.000000  0.000000  0.000000  0.000000
                       0.000000  0.000000  0.000000  0.000000  0.000000  0.000000
                       0.000000  0.000000  0.000000  0.000000  0.000000  0.000000
                       0.000000  0.000000  0.000000  0.000000  0.000000  0.000000
                       0.000000  0.000000  0.000000  0.000000  0.000000  0.000000
                       0.000000  0.000000  0.000000  0.000000  0.000000  0.000000
                       0.000000  0.000000  0.000000  0.000000  0.000000  0.000000
                       0.000000  0.000000  0.000000  0.000000  0.000000  0.000000
                       0.000000  0.000000  0.000000  0.000000  0.000000  0.000000
                       0.000000  0.000000  0.000000  0.000000  0.000000  0.000000
                       0.000000  0.000000  0.000000  0.000000  0.000000  0.000000
                       0.000000  0.000000  0.000000  0.000000  0.000000  0.000000
                       0.000000  0.000000  0.000000  0.000000  0.000000  0.000000
                       0.000000  0.000000  0.000000  0.000000  0.000000  0.000000
                       0.000000  0.000000  0.000000  0.000000  0.000000  0.000000
                       0.000000  0.000000  0.000000  0.000000  0.000000  0.000000
                       0.000000  0.000000  0.000000  0.000000  0.000000  0.000000
                       0.000000  0.000000  0.000000  0.000000  0.000000  0.000000
                       0.000000  0.000000  0.000000  0.000000  0.000000  0.000000
                       0.000000  0.000000
        optdriver1          0
        optdriver2          0
        optdriver3          0
        optdriver4          1
        optdriver5          1
        optdriver6          1
            prtwf1          1
            prtwf2          1
            prtwf3          1
            prtwf4          3
            prtwf5          3
            prtwf6          3
            rfdir1          0       0       0
            rfdir2          0       0       0
            rfdir3          0       0       0
            rfdir4          1       0       0
            rfdir5          0       1       0
            rfdir6          0       0       1
           rfelfd1          0
           rfelfd2          0
           rfelfd3          0
           rfelfd4          2
           rfelfd5          2
           rfelfd6          2
            rprim      1.0000000000E+00  0.0000000000E+00  0.0000000000E+00
                       0.0000000000E+00  1.0000000000E+00  0.0000000000E+00
                       1.0000000000E-15  1.0000000000E-15  8.3913010243E+00
           shiftk      5.00000000E-01  5.00000000E-01  5.00000000E-01
          spgroup          99
           symrel      1  0  0   0  1  0   0  0  1       1  0  0   0 -1  0   0  0  1
                      -1  0  0   0 -1  0   0  0  1      -1  0  0   0  1  0   0  0  1
                       0  1  0   1  0  0   0  0  1       0  1  0  -1  0  0   0  0  1
                       0 -1  0  -1  0  0   0  0  1       0 -1  0   1  0  0   0  0  1
            tnons      0.0000000  0.0000000  0.0000000     0.0000000 -0.0000000  0.0000000
                      -0.0000000 -0.0000000  0.0000000    -0.0000000  0.0000000  0.0000000
                       0.5000000  0.5000000  0.0000000     0.5000000  0.5000000  0.0000000
                       0.5000000  0.5000000  0.0000000     0.5000000  0.5000000  0.0000000
           tolwfr      1.00000000E-20
            typat      1  1  1  1  1  1  1  1  2  2  2  2  2  2  2  2  2  2  3  3
           vdw_xc           5
              wtk1       0.06250    0.12500    0.12500    0.12500    0.06250    0.12500
                         0.12500    0.06250    0.12500    0.06250
              wtk2       0.06250    0.12500    0.12500    0.12500    0.06250    0.12500
                         0.12500    0.06250    0.12500    0.06250
              wtk3       0.01563    0.01563    0.01563    0.01563    0.01563    0.01563
                         0.01563    0.01563    0.01563    0.01563    0.01563    0.01563
                         0.01563    0.01563    0.01563    0.01563    0.01563    0.01563
                         0.01563    0.01563    0.01563    0.01563    0.01563    0.01563
                         0.01563    0.01563    0.01563    0.01563    0.01563    0.01563
                         0.01563    0.01563    0.01563    0.01563    0.01563    0.01563
                         0.01563    0.01563    0.01563    0.01563    0.01563    0.01563
                         0.01563    0.01563    0.01563    0.01563    0.01563    0.01563
                         0.01563    0.01563
              wtk4       0.01563    0.01563    0.01563    0.01563    0.01563    0.01563
                         0.01563    0.01563    0.01563    0.01563    0.01563    0.01563
                         0.01563    0.01563    0.01563    0.01563    0.01563    0.01563
                         0.01563    0.01563    0.01563    0.01563    0.01563    0.01563
                         0.01563    0.01563    0.01563    0.01563    0.01563    0.01563
                         0.01563    0.01563    0.01563    0.01563    0.01563    0.01563
                         0.01563    0.01563    0.01563    0.01563    0.01563    0.01563
                         0.01563    0.01563    0.01563    0.01563    0.01563    0.01563
                         0.01563    0.01563
              wtk5       0.01563    0.01563    0.01563    0.01563    0.01563    0.01563
                         0.01563    0.01563    0.01563    0.01563    0.01563    0.01563
                         0.01563    0.01563    0.01563    0.01563    0.01563    0.01563
                         0.01563    0.01563    0.01563    0.01563    0.01563    0.01563
                         0.01563    0.01563    0.01563    0.01563    0.01563    0.01563
                         0.01563    0.01563    0.01563    0.01563    0.01563    0.01563
                         0.01563    0.01563    0.01563    0.01563    0.01563    0.01563
                         0.01563    0.01563    0.01563    0.01563    0.01563    0.01563
                         0.01563    0.01563
              wtk6       0.01563    0.01563    0.01563    0.01563    0.01563    0.01563
                         0.01563    0.01563    0.01563    0.01563    0.01563    0.01563
                         0.01563    0.01563    0.01563    0.01563    0.01563    0.01563
                         0.01563    0.01563    0.01563    0.01563    0.01563    0.01563
                         0.01563    0.01563    0.01563    0.01563    0.01563    0.01563
                         0.01563    0.01563    0.01563    0.01563    0.01563    0.01563
                         0.01563    0.01563    0.01563    0.01563    0.01563    0.01563
                         0.01563    0.01563    0.01563    0.01563    0.01563    0.01563
                         0.01563    0.01563
                       outvars : Printing only first  50 k-points.
           xangst      2.0538509643E+00  5.5610890249E-16  4.6664772030E+00
                       8.8378439303E-16  2.0538509643E+00  7.4161008824E+00
                       2.0538509643E+00  1.2038893889E-15  1.0102198262E+01
                       1.5315648795E-15  2.0538509643E+00  1.2851821942E+01
                       2.0538509643E+00  1.8516698753E-15  1.5537919322E+01
                       2.1793453659E-15  2.0538509643E+00  1.8287543001E+01
                       2.0538509643E+00  2.4994503618E-15  2.0973640381E+01
                       2.8271299600E-15  2.0538509643E+00  2.3723298529E+01
                       5.5989209596E-16  2.0538509643E+00  4.6982231183E+00
                       2.0538509643E+00  8.7999709185E-16  7.3843204982E+00
                       1.2076766901E-15  2.0538509643E+00  1.0133978647E+01
                       2.0538509643E+00  1.5277816860E-15  1.2820076026E+01
                       1.8554571765E-15  2.0538509643E+00  1.5569699706E+01
                       2.0538509643E+00  2.1755621724E-15  1.8255797086E+01
                       2.5032376629E-15  2.0538509643E+00  2.1005420765E+01
                       2.0538509643E+00  2.8233426588E-15  2.3691518145E+01
                       2.0538509643E+00  3.1952704222E-15  2.6812475967E+01
                       3.5515930260E-15  2.0538509643E+00  2.9802486197E+01
                       2.0538509643E+00  2.0538509643E+00  2.8307498317E+01
                       3.3734337780E-15  3.3734337780E-15  2.8307498317E+01
            xcart      3.8812158402E+00  1.0508935258E-15  8.8183639191E+00
                       1.6701104633E-15  3.8812158402E+00  1.4014399642E+01
                       3.8812158402E+00  2.2750212393E-15  1.9090388056E+01
                       2.8942381769E-15  3.8812158402E+00  2.4286423778E+01
                       3.8812158402E+00  3.4991489529E-15  2.9362412193E+01
                       4.1183658905E-15  3.8812158402E+00  3.4558447915E+01
                       3.8812158402E+00  4.7232766665E-15  3.9634436329E+01
                       5.3425013665E-15  3.8812158402E+00  4.4830537189E+01
                       1.0580427253E-15  3.8812158402E+00  8.8783550048E+00
                       3.8812158402E+00  1.6629535013E-15  1.3954343419E+01
                       2.2821782013E-15  3.8812158402E+00  1.9150444278E+01
                       3.8812158402E+00  2.8870889773E-15  2.4226432693E+01
                       3.5063059149E-15  3.8812158402E+00  2.9422468415E+01
                       3.8812158402E+00  4.1112166909E-15  3.4498456829E+01
                       4.7304336285E-15  3.8812158402E+00  3.9694492552E+01
                       3.8812158402E+00  5.3353444045E-15  4.4770480966E+01
                       3.8812158402E+00  6.0381860185E-15  5.0668236522E+01
                       6.7115381547E-15  3.8812158402E+00  5.6318536992E+01
                       3.8812158402E+00  3.8812158402E+00  5.3493419325E+01
                       6.3748659678E-15  6.3748659678E-15  5.3493419325E+01
             xred      5.0000000000E-01  2.5451086397E-32  1.3538200000E-01
                      -1.2553174550E-32  5.0000000000E-01  2.1515300000E-01
                       5.0000000000E-01 -2.5603026039E-32  2.9308100000E-01
                      -4.1574609594E-32  5.0000000000E-01  3.7285200000E-01
                       5.0000000000E-01 -5.4624461082E-32  4.5078000000E-01
                      -1.1466139942E-31  5.0000000000E-01  5.3055100000E-01
                       5.0000000000E-01  2.0200168819E-32  6.0847900000E-01
                      -7.4331858357E-32  5.0000000000E-01  6.8825100000E-01
                      -5.4468158982E-33  5.0000000000E-01  1.3630300000E-01
                       5.0000000000E-01 -1.8496667387E-32  2.1423100000E-01
                      -4.6930662386E-32  5.0000000000E-01  2.9400300000E-01
                       5.0000000000E-01 -1.0676707299E-32  3.7193100000E-01
                       2.7893967515E-32  5.0000000000E-01  4.5170200000E-01
                       5.0000000000E-01  9.6056642341E-33  5.2963000000E-01
                      -5.0431274105E-32  5.0000000000E-01  6.0940100000E-01
                       5.0000000000E-01 -1.1278493217E-31  6.8732900000E-01
                       5.0000000000E-01 -9.3691669479E-32  7.7787300000E-01
                      -1.0526112392E-31  5.0000000000E-01  8.6461800000E-01
                       5.0000000000E-01  5.0000000000E-01  8.2124600000E-01
                      -6.7420134542E-32 -6.7420134542E-32  8.2124600000E-01
            znucl       50.00000   34.00000   30.00000

================================================================================

 chkinp: Checking input parameters for consistency, jdtset=   1.

 chkinp: Checking input parameters for consistency, jdtset=   2.

 chkinp: Checking input parameters for consistency, jdtset=   3.

 chkinp: Checking input parameters for consistency, jdtset=   4.

 chkinp: Checking input parameters for consistency, jdtset=   5.

 chkinp: Checking input parameters for consistency, jdtset=   6.
 DATA TYPE INFORMATION: 
 REAL:      Data type name: REAL(DP) 
            Kind value:      8
            Precision:      15
            Smallest nonnegligible quantity relative to 1: 0.22204460E-015
            Smallest positive number:                      0.22250739E-307
            Largest representable number:                  0.17976931E+309
 INTEGER:   Data type name: INTEGER(default) 
            Kind value: 4
            Bit size:   32
            Largest representable number: 2147483647
 LOGICAL:   Data type name: LOGICAL 
            Kind value: 4
 CHARACTER: Data type name: CHARACTER             Kind value: 1

  ==== OpenMP parallelism is OFF ====
 
  ==== Using MPI-2 specifications ==== 
  MPI-IO support is ON
  xmpi_tag_ub ................   2147483647
  xmpi_bsize_ch ..............            1
  xmpi_bsize_int .............            4
  xmpi_bsize_sp ..............            4
  xmpi_bsize_dp ..............            8
  xmpi_bsize_spc .............            8
  xmpi_bsize_dpc .............           16
  xmpio_bsize_frm ............            4
  xmpi_address_kind ..........            8
  xmpi_offset_kind ...........            8
  MPI_WTICK ..................    1.0000000000000001E-009

================================================================================
== DATASET  1 ==================================================================
-   mpi_nproc: 4, omp_nthreads: -1 (-1 if OMP is not activated)


--- !COMMENT
src_file: m_xgScalapack.F90
src_line: 236
message: |
    xgScalapack in auto mode
...


 getdim_nloc : deduce lmnmax  =  18, lnmax  =   6,
                      lmnmaxso=  18, lnmaxso=   6.
 Exchange-correlation functional for the present dataset will be:
  GGA: Perdew-Burke-Ernzerhof functional - ixc=11
 Citation for XC functional:
  J.P.Perdew, K.Burke, M.Ernzerhof, PRL 77, 3865 (1996)

 Unit cell volume ucvol=  3.9248465E+03 bohr^3
 Angles (23,13,12)=  9.00000000E+01  9.00000000E+01  9.00000000E+01 degrees

 getcut: wavevector=  0.0000  0.0000  0.0000  ngfft=  36  36 288
         ecut(hartree)=     22.500   => boxcut(ratio)=   2.07066
- pspini: atom type   1  psp file is ../../../Psps_for_tests/ATOMICDATA_NC/Sn.psp8
- pspatm: opening atomic psp file    ../../../Psps_for_tests/ATOMICDATA_NC/Sn.psp8
- Sn    ONCVPSP  r_core=  2.27  2.62  1.86
- 50.00000  14.00000    150810                znucl, zion, pspdat
    8   11    2    4       600   0.00000      pspcod,pspxc,lmax,lloc,mmax,r2well
    5.99000000000000    6.50000000000000    0.00000000000000   rchrg,fchrg,qchrg
     nproj     2     2     2
     extension_switch     1
  valence charge integrates to:    13.912521222389802     
  pspatm : epsatm=   32.65190642
         --- l  ekb(1:nproj) -->
             0    5.462393    0.682281
             1    4.443814    0.825686
             2   -5.382195   -1.704077
 pspatm: atomic psp has been read  and splines computed

- pspini: atom type   2  psp file is ../../../Psps_for_tests/ATOMICDATA_NC/Se.psp8
- pspatm: opening atomic psp file    ../../../Psps_for_tests/ATOMICDATA_NC/Se.psp8
- Se    ONCVPSP  r_core=  1.82  1.50  1.91
- 34.00000  16.00000    150729                znucl, zion, pspdat
    8   11    2    4       600   0.00000      pspcod,pspxc,lmax,lloc,mmax,r2well
    5.99000000000000    5.00000000000000    0.00000000000000   rchrg,fchrg,qchrg
     nproj     2     2     2
     extension_switch     1
  valence charge integrates to:    15.981819523532332     
  pspatm : epsatm=   29.53325930
         --- l  ekb(1:nproj) -->
             0    8.612261    0.939919
             1    6.984962    1.281898
             2   -9.322521   -3.856218
 pspatm: atomic psp has been read  and splines computed

- pspini: atom type   3  psp file is ../../../Psps_for_tests/ATOMICDATA_NC/Zn.psp8
- pspatm: opening atomic psp file    ../../../Psps_for_tests/ATOMICDATA_NC/Zn.psp8
- Zn    ONCVPSP  r_core=  1.36  1.66  1.85
- 30.00000  20.00000    161102                znucl, zion, pspdat
    8   11    2    4       600   0.00000      pspcod,pspxc,lmax,lloc,mmax,r2well
    5.99000000000000    2.50000000000000    0.00000000000000   rchrg,fchrg,qchrg
     nproj     2     2     2
     extension_switch     1
  valence charge integrates to:    19.977025053306086     
  pspatm : epsatm=   26.67245340
         --- l  ekb(1:nproj) -->
             0    2.404235   -1.533451
             1   -4.677427   -1.530630
             2   -7.000316   -2.622858
 pspatm: atomic psp has been read  and splines computed

   1.90286538E+05                                ecore*ucvol(ha*bohr**3)
 ==== Info on pseudopotentials ====
  Norm-conserving pseudopotentials
  Number of pseudopotentials ..    3
  Number of types of atoms   ..    3
  Scalar calculation (no spin-orbit term)
  Nonlocal part applied using Legendre polynomials
  Max number of non-local projectors over l and type   2
  Highest angular momentum +1 .......   3
  Max number of (l,n)   components ..   6
  Max number of (l,m,n) components ..   6

 Pseudo-Core Charge Info: 
   Number of radial points for pseudo-core charge .. 2501
   XC core-correction treatment (optnlxccc) ........    1
   Radius for pseudo-core charge for each type ..... 

  - Atom type    1 has pseudo-core radius ..  5.9900
  - Atom type    2 has pseudo-core radius ..  5.9900
  - Atom type    3 has pseudo-core radius ..  5.9900

 Info on the Q-grid used for form factors in spline form: 
   Number of q-points for radial functions ffspl ..  13909
   Number of q-points for vlspl ...................  13909
   vloc is computed in Reciprocal Space
   model core charge treated in real-space

  XC functional for type 1 is 11
  Pseudo valence available: yes
  XC functional for type 2 is 11
  Pseudo valence available: yes
  XC functional for type 3 is 11
  Pseudo valence available: yes

 wfconv:   159 bands initialized randomly with npw= 20051, for ikpt=     1
 wfconv:   159 bands initialized randomly with npw= 20037, for ikpt=     2
 wfconv:   159 bands initialized randomly with npw= 19990, for ikpt=     3
_setup2: Arith. and geom. avg. npw (full set) are   20007.375   20007.365
 initro: for itypat=  1, take pseudo charge density from pp file
 initro: for itypat=  2, take pseudo charge density from pp file
 initro: for itypat=  3, take pseudo charge density from pp file

================================================================================

 getcut: wavevector=  0.0000  0.0000  0.0000  ngfft=  36  36 288
         ecut(hartree)=     22.500   => boxcut(ratio)=   2.07066

 1/G**2 cut-off applied in the following step : cutoff-mode = CRYSTAL

  --------------------------------------------------------------
  Van der Waals DFT-D2 semi-empirical dispersion potential added
      with following parameters:
      Specie  C6 (J.nm^6.mol^-1)  R0 (Ang)
      ------------------------------------
         Sn           38.71         1.804
         Se           12.64         1.771
         Zn           10.80         1.562

      Scaling factor   =   0.75
      Damping parameter=  20.00
      Cut-off radius   = 130.92 bohr

      Number of pairs contributing =   500664
      DFT-D2 energy contribution   =   -2.58259E-01 Ha
  --------------------------------------------------------------


 1/G**2 cut-off applied in the following step : cutoff-mode = CRYSTAL

 1/G**2 cut-off applied in the following step : cutoff-mode = CRYSTAL

--- !WARNING
src_file: m_drivexc.F90
src_line: 707
message: |
    Density went too small (lower than xc_denpos) at 17775 points
    and was set to xc_denpos =   1.00E-14. Lowest was  -0.72E-03.
    Likely due to too low boxcut or too low ecut for pseudopotential core charge.
...


 ITER STEP NUMBER     1
 vtorho: nnsclo_now = 2, note that nnsclo, dbl_nnsclo, istep= 0 0 1
 Total charge density [el/Bohr^3]
      Maximum=    3.2666E+00  at reduced coord.    0.0000    0.9722    0.8160
      Minimum=    3.0884E-03  at reduced coord.    0.2222    0.2778    0.0069
   Integrated=    3.1200E+02

 1/G**2 cut-off applied in the following step : cutoff-mode = CRYSTAL
 ETOT  1  -2009.6799529804    -2.010E+03 8.385E-01 3.272E+07
 scprqt: <Vxc>= -3.7545075E-01 hartree

 Simple mixing update:
  residual square of the potential:    331202.68651624036
 scfcv_core: previous iteration took 03:16 [minutes]

 ITER STEP NUMBER     2
 vtorho: nnsclo_now = 2, note that nnsclo, dbl_nnsclo, istep= 0 0 2
 Total charge density [el/Bohr^3]
      Maximum=    6.0383E+00  at reduced coord.    0.9444    0.9722    0.8229
      Minimum=    3.3292E-04  at reduced coord.    0.0000    0.0000    0.2465
   Integrated=    3.1200E+02
 ETOT  2   12610.584247979     1.462E+04 3.299E-01 3.606E+09
 scprqt: <Vxc>= -3.0841055E-01 hartree

 Pulay update with  1 previous iterations:
 mixing of old trial potential: alpha(m:m-4)=  0.890E-01  0.911
 scfcv_core: previous iteration took 03:14 [minutes]

 ITER STEP NUMBER     3
 vtorho: nnsclo_now = 1, note that nnsclo, dbl_nnsclo, istep= 0 0 3
 Total charge density [el/Bohr^3]
      Maximum=    5.5817E+00  at reduced coord.    0.9722    0.9444    0.8194
      Minimum=    4.9553E-04  at reduced coord.    0.0000    0.5000    0.0521
   Integrated=    3.1200E+02
 ETOT  3  -89.751456876541    -1.270E+04 3.052E+00 4.764E+08
 scprqt: <Vxc>= -3.3836309E-01 hartree

 Pulay update with  2 previous iterations:
 mixing of old trial potential: alpha(m:m-4)=  0.439     -0.966E-01  0.657
 scfcv_core: previous iteration took 01:38 [minutes]

 ITER STEP NUMBER     4
 vtorho: nnsclo_now = 1, note that nnsclo, dbl_nnsclo, istep= 0 0 4
 Total charge density [el/Bohr^3]
      Maximum=    4.9961E+00  at reduced coord.    0.9722    0.9444    0.8194
      Minimum=    9.1577E-05  at reduced coord.    0.0000    0.5000    0.0382
   Integrated=    3.1200E+02
 ETOT  4  -2170.4469038656    -2.081E+03 4.799E-01 1.066E+07
 scprqt: <Vxc>= -3.2426802E-01 hartree

 Pulay update with  3 previous iterations:
 mixing of old trial potential: alpha(m:m-4)=  0.292      0.273     -0.654E-01  0.500
 scfcv_core: previous iteration took 01:36 [minutes]

 ITER STEP NUMBER     5
 vtorho: nnsclo_now = 1, note that nnsclo, dbl_nnsclo, istep= 0 0 5
 Total charge density [el/Bohr^3]
[...]
                       2.000000  2.000000  2.000000  2.000000  2.000000  2.000000
                       2.000000  2.000000  2.000000  2.000000  2.000000  2.000000
                       2.000000  2.000000  2.000000  2.000000  2.000000  2.000000
                       2.000000  2.000000  2.000000  2.000000  2.000000  2.000000
                       2.000000  2.000000  2.000000  2.000000  2.000000  2.000000
                       2.000000  2.000000  2.000000  2.000000  2.000000  2.000000
                       2.000000  2.000000  2.000000  2.000000  2.000000  2.000000
                       2.000000  2.000000  2.000000  2.000000  2.000000  2.000000
                       2.000000  2.000000  2.000000  2.000000  2.000000  2.000000
                       2.000000  2.000000  2.000000  2.000000  2.000000  2.000000
                       2.000000  2.000000  2.000000  2.000000  2.000000  2.000000
                       2.000000  2.000000  2.000000  2.000000  2.000000  2.000000
                       2.000000  2.000000  2.000000  2.000000  2.000000  2.000000
                       2.000000  2.000000  2.000000  2.000000  2.000000  2.000000
                       2.000000  2.000000  2.000000  2.000000  2.000000  2.000000
                       2.000000  2.000000  2.000000  2.000000  2.000000  2.000000
                       0.000000  0.000000  0.000000  0.000000  0.000000  0.000000
                       0.000000  0.000000  0.000000  0.000000  0.000000  0.000000
                       0.000000  0.000000  0.000000  0.000000  0.000000  0.000000
                       0.000000  0.000000  0.000000  0.000000  0.000000  0.000000
                       0.000000  0.000000  0.000000  0.000000  0.000000  0.000000
                       0.000000  0.000000  0.000000  0.000000  0.000000  0.000000
                       0.000000  0.000000  0.000000  0.000000  0.000000  0.000000
                       0.000000  0.000000  0.000000  0.000000  0.000000  0.000000
                       0.000000  0.000000  0.000000  0.000000  0.000000  0.000000
                       0.000000  0.000000  0.000000  0.000000  0.000000  0.000000
                       0.000000  0.000000  0.000000  0.000000  0.000000  0.000000
                       0.000000  0.000000  0.000000  0.000000  0.000000  0.000000
                       0.000000  0.000000  0.000000  0.000000  0.000000  0.000000
                       0.000000  0.000000  0.000000  0.000000  0.000000  0.000000
                       0.000000  0.000000  0.000000  0.000000  0.000000  0.000000
                       0.000000  0.000000  0.000000  0.000000  0.000000  0.000000
                       0.000000  0.000000  0.000000  0.000000  0.000000  0.000000
                       0.000000  0.000000  0.000000  0.000000  0.000000  0.000000
                       0.000000  0.000000  0.000000  0.000000  0.000000  0.000000
                       0.000000  0.000000  0.000000  0.000000  0.000000  0.000000
                       0.000000  0.000000  0.000000  0.000000  0.000000  0.000000
                       0.000000  0.000000  0.000000  0.000000  0.000000  0.000000
                       0.000000  0.000000  0.000000  0.000000  0.000000  0.000000
                       0.000000  0.000000  0.000000  0.000000  0.000000  0.000000
                       0.000000  0.000000  0.000000  0.000000  0.000000  0.000000
                       0.000000  0.000000  0.000000  0.000000  0.000000  0.000000
                       0.000000  0.000000  0.000000  0.000000  0.000000  0.000000
                       0.000000  0.000000  0.000000  0.000000  0.000000  0.000000
                       0.000000  0.000000  0.000000  0.000000  0.000000  0.000000
                       0.000000  0.000000  0.000000  0.000000  0.000000  0.000000
                       0.000000  0.000000  0.000000  0.000000  0.000000  0.000000
                       0.000000  0.000000  0.000000  0.000000  0.000000  0.000000
                       0.000000  0.000000
        optdriver1          0
        optdriver2          0
        optdriver3          0
        optdriver4          1
        optdriver5          1
        optdriver6          1
            prtwf1          1
            prtwf2          1
            prtwf3          1
            prtwf4          3
            prtwf5          3
            prtwf6          3
            rfdir1          0       0       0
            rfdir2          0       0       0
            rfdir3          0       0       0
            rfdir4          1       0       0
            rfdir5          0       1       0
            rfdir6          0       0       1
           rfelfd1          0
           rfelfd2          0
           rfelfd3          0
           rfelfd4          2
           rfelfd5          2
           rfelfd6          2
            rprim      1.0000000000E+00  0.0000000000E+00  0.0000000000E+00
                       0.0000000000E+00  1.0000000000E+00  0.0000000000E+00
                       1.0000000000E-15  1.0000000000E-15  8.3913010243E+00
           shiftk      5.00000000E-01  5.00000000E-01  5.00000000E-01
          spgroup          99
           strten1     1.6108484345E-02  1.6108484345E-02  1.5823809094E-02
                       0.0000000000E+00  0.0000000000E+00  0.0000000000E+00
           symrel      1  0  0   0  1  0   0  0  1       1  0  0   0 -1  0   0  0  1
                      -1  0  0   0 -1  0   0  0  1      -1  0  0   0  1  0   0  0  1
                       0  1  0   1  0  0   0  0  1       0  1  0  -1  0  0   0  0  1
                       0 -1  0  -1  0  0   0  0  1       0 -1  0   1  0  0   0  0  1
            tnons      0.0000000  0.0000000  0.0000000     0.0000000 -0.0000000  0.0000000
                      -0.0000000 -0.0000000  0.0000000    -0.0000000  0.0000000  0.0000000
                       0.5000000  0.5000000  0.0000000     0.5000000  0.5000000  0.0000000
                       0.5000000  0.5000000  0.0000000     0.5000000  0.5000000  0.0000000
           tolwfr      1.00000000E-20
            typat      1  1  1  1  1  1  1  1  2  2  2  2  2  2  2  2  2  2  3  3
           vdw_xc           5
              wtk1       0.06250    0.12500    0.12500    0.12500    0.06250    0.12500
                         0.12500    0.06250    0.12500    0.06250
              wtk2       0.06250    0.12500    0.12500    0.12500    0.06250    0.12500
                         0.12500    0.06250    0.12500    0.06250
              wtk3       0.01563    0.01563    0.01563    0.01563    0.01563    0.01563
                         0.01563    0.01563    0.01563    0.01563    0.01563    0.01563
                         0.01563    0.01563    0.01563    0.01563    0.01563    0.01563
                         0.01563    0.01563    0.01563    0.01563    0.01563    0.01563
                         0.01563    0.01563    0.01563    0.01563    0.01563    0.01563
                         0.01563    0.01563    0.01563    0.01563    0.01563    0.01563
                         0.01563    0.01563    0.01563    0.01563    0.01563    0.01563
                         0.01563    0.01563    0.01563    0.01563    0.01563    0.01563
                         0.01563    0.01563
              wtk4       0.01563    0.01563    0.01563    0.01563    0.01563    0.01563
                         0.01563    0.01563    0.01563    0.01563    0.01563    0.01563
                         0.01563    0.01563    0.01563    0.01563    0.01563    0.01563
                         0.01563    0.01563    0.01563    0.01563    0.01563    0.01563
                         0.01563    0.01563    0.01563    0.01563    0.01563    0.01563
                         0.01563    0.01563    0.01563    0.01563    0.01563    0.01563
                         0.01563    0.01563    0.01563    0.01563    0.01563    0.01563
                         0.01563    0.01563    0.01563    0.01563    0.01563    0.01563
                         0.01563    0.01563
              wtk5       0.01563    0.01563    0.01563    0.01563    0.01563    0.01563
                         0.01563    0.01563    0.01563    0.01563    0.01563    0.01563
                         0.01563    0.01563    0.01563    0.01563    0.01563    0.01563
                         0.01563    0.01563    0.01563    0.01563    0.01563    0.01563
                         0.01563    0.01563    0.01563    0.01563    0.01563    0.01563
                         0.01563    0.01563    0.01563    0.01563    0.01563    0.01563
                         0.01563    0.01563    0.01563    0.01563    0.01563    0.01563
                         0.01563    0.01563    0.01563    0.01563    0.01563    0.01563
                         0.01563    0.01563
              wtk6       0.01563    0.01563    0.01563    0.01563    0.01563    0.01563
                         0.01563    0.01563    0.01563    0.01563    0.01563    0.01563
                         0.01563    0.01563    0.01563    0.01563    0.01563    0.01563
                         0.01563    0.01563    0.01563    0.01563    0.01563    0.01563
                         0.01563    0.01563    0.01563    0.01563    0.01563    0.01563
                         0.01563    0.01563    0.01563    0.01563    0.01563    0.01563
                         0.01563    0.01563    0.01563    0.01563    0.01563    0.01563
                         0.01563    0.01563    0.01563    0.01563    0.01563    0.01563
                         0.01563    0.01563
                       outvars : Printing only first  50 k-points.
           xangst      2.0538509643E+00  5.5610890249E-16  4.6664772030E+00
                       8.8378439303E-16  2.0538509643E+00  7.4161008824E+00
                       2.0538509643E+00  1.2038893889E-15  1.0102198262E+01
                       1.5315648795E-15  2.0538509643E+00  1.2851821942E+01
                       2.0538509643E+00  1.8516698753E-15  1.5537919322E+01
                       2.1793453659E-15  2.0538509643E+00  1.8287543001E+01
                       2.0538509643E+00  2.4994503618E-15  2.0973640381E+01
                       2.8271299600E-15  2.0538509643E+00  2.3723298529E+01
                       5.5989209596E-16  2.0538509643E+00  4.6982231183E+00
                       2.0538509643E+00  8.7999709185E-16  7.3843204982E+00
                       1.2076766901E-15  2.0538509643E+00  1.0133978647E+01
                       2.0538509643E+00  1.5277816860E-15  1.2820076026E+01
                       1.8554571765E-15  2.0538509643E+00  1.5569699706E+01
                       2.0538509643E+00  2.1755621724E-15  1.8255797086E+01
                       2.5032376629E-15  2.0538509643E+00  2.1005420765E+01
                       2.0538509643E+00  2.8233426588E-15  2.3691518145E+01
                       2.0538509643E+00  3.1952704222E-15  2.6812475967E+01
                       3.5515930260E-15  2.0538509643E+00  2.9802486197E+01
                       2.0538509643E+00  2.0538509643E+00  2.8307498317E+01
                       3.3734337780E-15  3.3734337780E-15  2.8307498317E+01
            xcart      3.8812158402E+00  1.0508935258E-15  8.8183639191E+00
                       1.6701104633E-15  3.8812158402E+00  1.4014399642E+01
                       3.8812158402E+00  2.2750212393E-15  1.9090388056E+01
                       2.8942381769E-15  3.8812158402E+00  2.4286423778E+01
                       3.8812158402E+00  3.4991489529E-15  2.9362412193E+01
                       4.1183658905E-15  3.8812158402E+00  3.4558447915E+01
                       3.8812158402E+00  4.7232766665E-15  3.9634436329E+01
                       5.3425013665E-15  3.8812158402E+00  4.4830537189E+01
                       1.0580427253E-15  3.8812158402E+00  8.8783550048E+00
                       3.8812158402E+00  1.6629535013E-15  1.3954343419E+01
                       2.2821782013E-15  3.8812158402E+00  1.9150444278E+01
                       3.8812158402E+00  2.8870889773E-15  2.4226432693E+01
                       3.5063059149E-15  3.8812158402E+00  2.9422468415E+01
                       3.8812158402E+00  4.1112166909E-15  3.4498456829E+01
                       4.7304336285E-15  3.8812158402E+00  3.9694492552E+01
                       3.8812158402E+00  5.3353444045E-15  4.4770480966E+01
                       3.8812158402E+00  6.0381860185E-15  5.0668236522E+01
                       6.7115381547E-15  3.8812158402E+00  5.6318536992E+01
                       3.8812158402E+00  3.8812158402E+00  5.3493419325E+01
                       6.3748659678E-15  6.3748659678E-15  5.3493419325E+01
             xred      5.0000000000E-01  2.5451086397E-32  1.3538200000E-01
                      -1.2553174550E-32  5.0000000000E-01  2.1515300000E-01
                       5.0000000000E-01 -2.5603026039E-32  2.9308100000E-01
                      -4.1574609594E-32  5.0000000000E-01  3.7285200000E-01
                       5.0000000000E-01 -5.4624461082E-32  4.5078000000E-01
                      -1.1466139942E-31  5.0000000000E-01  5.3055100000E-01
                       5.0000000000E-01  2.0200168819E-32  6.0847900000E-01
                      -7.4331858357E-32  5.0000000000E-01  6.8825100000E-01
                      -5.4468158982E-33  5.0000000000E-01  1.3630300000E-01
                       5.0000000000E-01 -1.8496667387E-32  2.1423100000E-01
                      -4.6930662386E-32  5.0000000000E-01  2.9400300000E-01
                       5.0000000000E-01 -1.0676707299E-32  3.7193100000E-01
                       2.7893967515E-32  5.0000000000E-01  4.5170200000E-01
                       5.0000000000E-01  9.6056642341E-33  5.2963000000E-01
                      -5.0431274105E-32  5.0000000000E-01  6.0940100000E-01
                       5.0000000000E-01 -1.1278493217E-31  6.8732900000E-01
                       5.0000000000E-01 -9.3691669479E-32  7.7787300000E-01
                      -1.0526112392E-31  5.0000000000E-01  8.6461800000E-01
                       5.0000000000E-01  5.0000000000E-01  8.2124600000E-01
                      -6.7420134542E-32 -6.7420134542E-32  8.2124600000E-01
            znucl       50.00000   34.00000   30.00000

================================================================================
  

================================================================================

 Suggested references for the acknowledgment of ABINIT usage.

 The users of ABINIT have little formal obligations with respect to the ABINIT group
 (those specified in the GNU General Public License, http://www.gnu.org/copyleft/gpl.txt).
 However, it is common practice in the scientific literature,
 to acknowledge the efforts of people that have made the research possible.
 In this spirit, please find below suggested citations of work written by ABINIT developers,
 corresponding to implementations inside of ABINIT that you have used in the present run.
 Note also that it will be of great value to readers of publications presenting these results,
 to read papers enabling them to understand the theoretical formalism and details
 of the ABINIT implementation.
 For information on why they are suggested, see also https://docs.abinit.org/theory/acknowledgments.
-
- [1] The Abinit project: Impact, environment and recent developments.
- Computer Phys. Comm. 248, 107042 (2020).
- X.Gonze, B. Amadon, G. Antonius, F.Arnardi, L.Baguet, J.-M.Beuken,
- J.Bieder, F.Bottin, J.Bouchet, E.Bousquet, N.Brouwer, F.Bruneval,
- G.Brunin, T.Cavignac, J.-B. Charraud, Wei Chen, M.Cote, S.Cottenier,
- J.Denier, G.Geneste, Ph.Ghosez, M.Giantomassi, Y.Gillet, O.Gingras,
- D.R.Hamann, G.Hautier, Xu He, N.Helbig, N.Holzwarth, Y.Jia, F.Jollet,
- W.Lafargue-Dit-Hauret, K.Lejaeghere, M.A.L.Marques, A.Martin, C.Martins,
- H.P.C. Miranda, F.Naccarato, K. Persson, G.Petretto, V.Planes, Y.Pouillon,
- S.Prokhorenko, F.Ricci, G.-M.Rignanese, A.H.Romero, M.M.Schmitt, M.Torrent,
- M.J.van Setten, B.Van Troeye, M.J.Verstraete, G.Zerah and J.W.Zwanzig
- Comment: the fifth generic paper describing the ABINIT project.
- Note that a version of this paper, that is not formatted for Computer Phys. Comm. 
- is available at https://www.abinit.org/sites/default/files/ABINIT20.pdf .
- The licence allows the authors to put it on the Web.
- DOI and bibtex: see https://docs.abinit.org/theory/bibliography/#gonze2020
-
- [2] First-principles responses of solids to atomic displacements and homogeneous electric fields:,
- implementation of a conjugate-gradient algorithm. X. Gonze, Phys. Rev. B55, 10337 (1997).
- Comment: Non-vanishing rfphon and/or rfelfd, in the norm-conserving case.
- DOI and bibtex: see https://docs.abinit.org/theory/bibliography/#gonze1997
-
- [3] Dynamical matrices, Born effective charges, dielectric permittivity tensors, and ,
- interatomic force constants from density-functional perturbation theory,
- X. Gonze and C. Lee, Phys. Rev. B55, 10355 (1997).
- Comment: Non-vanishing rfphon and/or rfelfd, in the norm-conserving case.
- DOI and bibtex: see https://docs.abinit.org/theory/bibliography/#gonze1997a
-
- [4] Optimized norm-conserving Vanderbilt pseudopotentials.
- D.R. Hamann, Phys. Rev. B 88, 085117 (2013).
- Comment: Some pseudopotential generated using the ONCVPSP code were used.
- DOI and bibtex: see https://docs.abinit.org/theory/bibliography/#hamann2013
-
- [5] ABINIT: Overview, and focus on selected capabilities
- J. Chem. Phys. 152, 124102 (2020).
- A. Romero, D.C. Allan, B. Amadon, G. Antonius, T. Applencourt, L.Baguet,
- J.Bieder, F.Bottin, J.Bouchet, E.Bousquet, F.Bruneval,
- G.Brunin, D.Caliste, M.Cote,
- J.Denier, C. Dreyer, Ph.Ghosez, M.Giantomassi, Y.Gillet, O.Gingras,
- D.R.Hamann, G.Hautier, F.Jollet, G. Jomard,
- A.Martin, 
- H.P.C. Miranda, F.Naccarato, G.Petretto, N.A. Pike, V.Planes,
- S.Prokhorenko, T. Rangel, F.Ricci, G.-M.Rignanese, M.Royo, M.Stengel, M.Torrent,
- M.J.van Setten, B.Van Troeye, M.J.Verstraete, J.Wiktor, J.W.Zwanziger, and X.Gonze.
- Comment: a global overview of ABINIT, with focus on selected capabilities .
- Note that a version of this paper, that is not formatted for J. Chem. Phys 
- is available at https://www.abinit.org/sites/default/files/ABINIT20_JPC.pdf .
- The licence allows the authors to put it on the Web.
- DOI and bibtex: see https://docs.abinit.org/theory/bibliography/#romero2020
-
- [6] Recent developments in the ABINIT software package.
- Computer Phys. Comm. 205, 106 (2016).
- X.Gonze, F.Jollet, F.Abreu Araujo, D.Adams, B.Amadon, T.Applencourt,
- C.Audouze, J.-M.Beuken, J.Bieder, A.Bokhanchuk, E.Bousquet, F.Bruneval
- D.Caliste, M.Cote, F.Dahm, F.Da Pieve, M.Delaveau, M.Di Gennaro,
- B.Dorado, C.Espejo, G.Geneste, L.Genovese, A.Gerossier, M.Giantomassi,
- Y.Gillet, D.R.Hamann, L.He, G.Jomard, J.Laflamme Janssen, S.Le Roux,
- A.Levitt, A.Lherbier, F.Liu, I.Lukacevic, A.Martin, C.Martins,
- M.J.T.Oliveira, S.Ponce, Y.Pouillon, T.Rangel, G.-M.Rignanese,
- A.H.Romero, B.Rousseau, O.Rubel, A.A.Shukri, M.Stankovski, M.Torrent,
- M.J.Van Setten, B.Van Troeye, M.J.Verstraete, D.Waroquier, J.Wiktor,
- B.Xu, A.Zhou, J.W.Zwanziger.
- Comment: the fourth generic paper describing the ABINIT project.
- Note that a version of this paper, that is not formatted for Computer Phys. Comm. 
- is available at https://www.abinit.org/sites/default/files/ABINIT16.pdf .
- The licence allows the authors to put it on the Web.
- DOI and bibtex: see https://docs.abinit.org/theory/bibliography/#gonze2016
 Proc.   0 individual time (sec): cpu=      38168.8  wall=      38217.4

 Calculation completed.
.Delivered   8 WARNINGs and   0 COMMENTs to log file.

--- !FinalSummary
program: abinit
version: 9.2.2
start_datetime: Sun Mar 17 22:36:32 2024
end_datetime: Mon Mar 18 09:13:30 2024
overall_cpu_time:      152683.3
overall_wall_time:      152869.2
exit_requested_by_user: no 
timelimit: 0
pseudos: 
    Sn  : c918e999fc214fef37654f9ff7d5f03d
    Se  : f801923bd422df98a30264e8ccc86374
    Zn  : 80c9b4d1484b64588a366a4998a7c40d
usepaw: 0
mpi_procs: 4
omp_threads: 1
num_warnings: 8
num_comments: 0
...
