
.Version 9.2.2 of ABINIT 
.(MPI version, prepared for a x86_64_linux_gnu9.3 computer) 

.Copyright (C) 1998-2020 ABINIT group . 
 ABINIT comes with ABSOLUTELY NO WARRANTY.
 It is free software, and you are welcome to redistribute it
 under certain conditions (GNU General Public License,
 see ~abinit/COPYING or http://www.gnu.org/copyleft/gpl.txt).

 ABINIT is a project of the Universite Catholique de Louvain,
 Corning Inc. and other collaborators, see ~abinit/doc/developers/contributors.txt .
 Please read https://docs.abinit.org/theory/acknowledgments for suggested
 acknowledgments of the ABINIT effort.
 For more information, see https://www.abinit.org .

.Starting date : Sun 17 Mar 2024.
- ( at 00h10 )
  
- The starting date is more than 3 years after the initial release
- of this version of ABINIT, namely Nov 2020.
- This version of ABINIT is not supported anymore.
- Action: please, switch to a more recent version of ABINIT.
- input  file    -> Cs2TiI6.in
- output file    -> Cs2TiI6.out
- root for input  files -> Cs2TiI6i
- root for output files -> Cs2TiI6o


 DATASET    1 : space group P4 m m (# 99); Bravais tP (primitive tetrag.)
================================================================================
 Values of the parameters that define the memory need for DATASET  1.
     intxc =       0    ionmov =       0      iscf =       7    lmnmax =       6
     lnmax =       6     mgfft =     192  mpssoang =       3    mqgrid =    9494
     natom =      12  nloc_mem =       1    nspden =       1   nspinor =       1
    nsppol =       1      nsym =       8    n1xccc =    2501    ntypat =       3
    occopt =       1   xclevel =       2
-    mband =          98        mffmem =           1         mkmem =           3
       mpw =       13694          nfft =      248832          nkpt =          15
================================================================================
P This job should need less than                     145.924 Mbytes of memory.
  Rough estimation (10% accuracy) of disk space for files :
_ WF disk file :    307.164 Mbytes ; DEN or POT disk file :      1.900 Mbytes.
================================================================================


 DATASET    2 : space group P4 m m (# 99); Bravais tP (primitive tetrag.)
================================================================================
 Values of the parameters that define the memory need for DATASET  2.
     intxc =       0    ionmov =       0      iscf =      -2    lmnmax =       6
     lnmax =       6     mgfft =     192  mpssoang =       3    mqgrid =    9494
     natom =      12  nloc_mem =       1    nspden =       1   nspinor =       1
    nsppol =       1      nsym =       8    n1xccc =    2501    ntypat =       3
    occopt =       1   xclevel =       2
-    mband =         210        mffmem =           1         mkmem =           3
       mpw =       13694          nfft =      248832          nkpt =          15
================================================================================
P This job should need less than                     183.897 Mbytes of memory.
  Rough estimation (10% accuracy) of disk space for files :
_ WF disk file :    658.207 Mbytes ; DEN or POT disk file :      1.900 Mbytes.
================================================================================


 DATASET    3 : space group P4 m m (# 99); Bravais tP (primitive tetrag.)
================================================================================
 Values of the parameters that define the memory need for DATASET  3.
     intxc =       0    ionmov =       0      iscf =      -2    lmnmax =       6
     lnmax =       6     mgfft =     192  mpssoang =       3    mqgrid =    9494
     natom =      12  nloc_mem =       1    nspden =       1   nspinor =       1
    nsppol =       1      nsym =       8    n1xccc =    2501    ntypat =       3
    occopt =       1   xclevel =       2
-    mband =         210        mffmem =           1         mkmem =          17
       mpw =       13694          nfft =      248832          nkpt =         100
================================================================================
P This job should need less than                     806.906 Mbytes of memory.
  Rough estimation (10% accuracy) of disk space for files :
_ WF disk file :   4388.033 Mbytes ; DEN or POT disk file :      1.900 Mbytes.
================================================================================


 DATASET    4 : space group P4 m m (# 99); Bravais tP (primitive tetrag.)
================================================================================
 Values of the parameters that define the memory need for DATASET  4 (RF).
     intxc =       0      iscf =      -3    lmnmax =       6     lnmax =       6
     mgfft =     192  mpssoang =       3    mqgrid =    9494     natom =      12
  nloc_mem =       1    nspden =       1   nspinor =       1    nsppol =       1
      nsym =       8    n1xccc =    2501    ntypat =       3    occopt =       1
   xclevel =       2
-    mband =         210        mffmem =           1         mkmem =          17
-   mkqmem =          17        mk1mem =          17           mpw =       13694
      nfft =      248832          nkpt =         100
================================================================================
P This job should need less than                    2375.266 Mbytes of memory.
  Rough estimation (10% accuracy) of disk space for files :
_ WF disk file :    292.033 Mbytes ; DEN or POT disk file :      1.900 Mbytes.
================================================================================


 DATASET    5 : space group P4 m m (# 99); Bravais tP (primitive tetrag.)
================================================================================
 Values of the parameters that define the memory need for DATASET  5 (RF).
     intxc =       0      iscf =      -3    lmnmax =       6     lnmax =       6
     mgfft =     192  mpssoang =       3    mqgrid =    9494     natom =      12
  nloc_mem =       1    nspden =       1   nspinor =       1    nsppol =       1
      nsym =       8    n1xccc =    2501    ntypat =       3    occopt =       1
   xclevel =       2
-    mband =         210        mffmem =           1         mkmem =          17
-   mkqmem =          17        mk1mem =          17           mpw =       13694
      nfft =      248832          nkpt =         100
================================================================================
P This job should need less than                    2375.266 Mbytes of memory.
  Rough estimation (10% accuracy) of disk space for files :
_ WF disk file :    292.033 Mbytes ; DEN or POT disk file :      1.900 Mbytes.
================================================================================


 DATASET    6 : space group P4 m m (# 99); Bravais tP (primitive tetrag.)
================================================================================
 Values of the parameters that define the memory need for DATASET  6 (RF).
     intxc =       0      iscf =      -3    lmnmax =       6     lnmax =       6
     mgfft =     192  mpssoang =       3    mqgrid =    9494     natom =      12
  nloc_mem =       1    nspden =       1   nspinor =       1    nsppol =       1
      nsym =       8    n1xccc =    2501    ntypat =       3    occopt =       1
   xclevel =       2
-    mband =         210        mffmem =           1         mkmem =          17
-   mkqmem =          17        mk1mem =          17           mpw =       13694
      nfft =      248832          nkpt =         100
================================================================================
P This job should need less than                    2375.266 Mbytes of memory.
  Rough estimation (10% accuracy) of disk space for files :
_ WF disk file :    292.033 Mbytes ; DEN or POT disk file :      1.900 Mbytes.
================================================================================

--------------------------------------------------------------------------------
------------- Echo of variables that govern the present computation ------------
--------------------------------------------------------------------------------
-
- outvars: echo of selected default values                                      
-   iomode0 =  0 , fftalg0 =112 , wfoptalg0 =  0
-
- outvars: echo of global parameters not present in the input file              
-  max_nthreads =    0
-
 -outvars: echo values of preprocessed input variables --------
            acell      7.7624316804E+00  7.7624316804E+00  7.7624316804E+00 Bohr
              amu      1.18710000E+02  7.89600000E+01  6.53900000E+01
           diemac      1.20000000E+01
             ecut      2.25000000E+01 Hartree
-          fftalg         112
           getden1          0
           getden2          1
           getden3          1
           getden4          0
           getden5          0
           getden6          0
           getwfk1          0
           getwfk2          1
           getwfk3          2
           getwfk4          3
           getwfk5          3
           getwfk6          3
             iscf1          7
             iscf2         -2
             iscf3         -2
             iscf4         -3
             iscf5         -3
             iscf6         -3
              ixc          11
           jdtset        1    2    3    4    5    6
              kpt1     5.00000000E-02  5.00000000E-02  2.50000000E-01
                       1.50000000E-01  5.00000000E-02  2.50000000E-01
                       2.50000000E-01  5.00000000E-02  2.50000000E-01
                       3.50000000E-01  5.00000000E-02  2.50000000E-01
                       4.50000000E-01  5.00000000E-02  2.50000000E-01
                       1.50000000E-01  1.50000000E-01  2.50000000E-01
                       2.50000000E-01  1.50000000E-01  2.50000000E-01
                       3.50000000E-01  1.50000000E-01  2.50000000E-01
                       4.50000000E-01  1.50000000E-01  2.50000000E-01
                       2.50000000E-01  2.50000000E-01  2.50000000E-01
                       3.50000000E-01  2.50000000E-01  2.50000000E-01
                       4.50000000E-01  2.50000000E-01  2.50000000E-01
                       3.50000000E-01  3.50000000E-01  2.50000000E-01
                       4.50000000E-01  3.50000000E-01  2.50000000E-01
                       4.50000000E-01  4.50000000E-01  2.50000000E-01
              kpt2     5.00000000E-02  5.00000000E-02  2.50000000E-01
                       1.50000000E-01  5.00000000E-02  2.50000000E-01
                       2.50000000E-01  5.00000000E-02  2.50000000E-01
                       3.50000000E-01  5.00000000E-02  2.50000000E-01
                       4.50000000E-01  5.00000000E-02  2.50000000E-01
                       1.50000000E-01  1.50000000E-01  2.50000000E-01
                       2.50000000E-01  1.50000000E-01  2.50000000E-01
                       3.50000000E-01  1.50000000E-01  2.50000000E-01
                       4.50000000E-01  1.50000000E-01  2.50000000E-01
                       2.50000000E-01  2.50000000E-01  2.50000000E-01
                       3.50000000E-01  2.50000000E-01  2.50000000E-01
                       4.50000000E-01  2.50000000E-01  2.50000000E-01
                       3.50000000E-01  3.50000000E-01  2.50000000E-01
                       4.50000000E-01  3.50000000E-01  2.50000000E-01
                       4.50000000E-01  4.50000000E-01  2.50000000E-01
              kpt3     5.00000000E-02  5.00000000E-02  2.50000000E-01
                       1.50000000E-01  5.00000000E-02  2.50000000E-01
                       2.50000000E-01  5.00000000E-02  2.50000000E-01
                       3.50000000E-01  5.00000000E-02  2.50000000E-01
                       4.50000000E-01  5.00000000E-02  2.50000000E-01
                      -4.50000000E-01  5.00000000E-02  2.50000000E-01
                      -3.50000000E-01  5.00000000E-02  2.50000000E-01
                      -2.50000000E-01  5.00000000E-02  2.50000000E-01
                      -1.50000000E-01  5.00000000E-02  2.50000000E-01
                      -5.00000000E-02  5.00000000E-02  2.50000000E-01
                       5.00000000E-02  1.50000000E-01  2.50000000E-01
                       1.50000000E-01  1.50000000E-01  2.50000000E-01
                       2.50000000E-01  1.50000000E-01  2.50000000E-01
                       3.50000000E-01  1.50000000E-01  2.50000000E-01
                       4.50000000E-01  1.50000000E-01  2.50000000E-01
                      -4.50000000E-01  1.50000000E-01  2.50000000E-01
                      -3.50000000E-01  1.50000000E-01  2.50000000E-01
                      -2.50000000E-01  1.50000000E-01  2.50000000E-01
                      -1.50000000E-01  1.50000000E-01  2.50000000E-01
                      -5.00000000E-02  1.50000000E-01  2.50000000E-01
                       5.00000000E-02  2.50000000E-01  2.50000000E-01
                       1.50000000E-01  2.50000000E-01  2.50000000E-01
                       2.50000000E-01  2.50000000E-01  2.50000000E-01
                       3.50000000E-01  2.50000000E-01  2.50000000E-01
                       4.50000000E-01  2.50000000E-01  2.50000000E-01
                      -4.50000000E-01  2.50000000E-01  2.50000000E-01
                      -3.50000000E-01  2.50000000E-01  2.50000000E-01
                      -2.50000000E-01  2.50000000E-01  2.50000000E-01
                      -1.50000000E-01  2.50000000E-01  2.50000000E-01
                      -5.00000000E-02  2.50000000E-01  2.50000000E-01
                       5.00000000E-02  3.50000000E-01  2.50000000E-01
                       1.50000000E-01  3.50000000E-01  2.50000000E-01
                       2.50000000E-01  3.50000000E-01  2.50000000E-01
                       3.50000000E-01  3.50000000E-01  2.50000000E-01
                       4.50000000E-01  3.50000000E-01  2.50000000E-01
                      -4.50000000E-01  3.50000000E-01  2.50000000E-01
                      -3.50000000E-01  3.50000000E-01  2.50000000E-01
                      -2.50000000E-01  3.50000000E-01  2.50000000E-01
                      -1.50000000E-01  3.50000000E-01  2.50000000E-01
                      -5.00000000E-02  3.50000000E-01  2.50000000E-01
                       5.00000000E-02  4.50000000E-01  2.50000000E-01
                       1.50000000E-01  4.50000000E-01  2.50000000E-01
                       2.50000000E-01  4.50000000E-01  2.50000000E-01
                       3.50000000E-01  4.50000000E-01  2.50000000E-01
                       4.50000000E-01  4.50000000E-01  2.50000000E-01
                      -4.50000000E-01  4.50000000E-01  2.50000000E-01
                      -3.50000000E-01  4.50000000E-01  2.50000000E-01
                      -2.50000000E-01  4.50000000E-01  2.50000000E-01
                      -1.50000000E-01  4.50000000E-01  2.50000000E-01
                      -5.00000000E-02  4.50000000E-01  2.50000000E-01
              kpt4     5.00000000E-02  5.00000000E-02  2.50000000E-01
                       1.50000000E-01  5.00000000E-02  2.50000000E-01
                       2.50000000E-01  5.00000000E-02  2.50000000E-01
                       3.50000000E-01  5.00000000E-02  2.50000000E-01
                       4.50000000E-01  5.00000000E-02  2.50000000E-01
                      -4.50000000E-01  5.00000000E-02  2.50000000E-01
                      -3.50000000E-01  5.00000000E-02  2.50000000E-01
                      -2.50000000E-01  5.00000000E-02  2.50000000E-01
                      -1.50000000E-01  5.00000000E-02  2.50000000E-01
                      -5.00000000E-02  5.00000000E-02  2.50000000E-01
                       5.00000000E-02  1.50000000E-01  2.50000000E-01
                       1.50000000E-01  1.50000000E-01  2.50000000E-01
                       2.50000000E-01  1.50000000E-01  2.50000000E-01
                       3.50000000E-01  1.50000000E-01  2.50000000E-01
                       4.50000000E-01  1.50000000E-01  2.50000000E-01
                      -4.50000000E-01  1.50000000E-01  2.50000000E-01
                      -3.50000000E-01  1.50000000E-01  2.50000000E-01
                      -2.50000000E-01  1.50000000E-01  2.50000000E-01
                      -1.50000000E-01  1.50000000E-01  2.50000000E-01
                      -5.00000000E-02  1.50000000E-01  2.50000000E-01
                       5.00000000E-02  2.50000000E-01  2.50000000E-01
                       1.50000000E-01  2.50000000E-01  2.50000000E-01
                       2.50000000E-01  2.50000000E-01  2.50000000E-01
                       3.50000000E-01  2.50000000E-01  2.50000000E-01
                       4.50000000E-01  2.50000000E-01  2.50000000E-01
                      -4.50000000E-01  2.50000000E-01  2.50000000E-01
                      -3.50000000E-01  2.50000000E-01  2.50000000E-01
                      -2.50000000E-01  2.50000000E-01  2.50000000E-01
                      -1.50000000E-01  2.50000000E-01  2.50000000E-01
                      -5.00000000E-02  2.50000000E-01  2.50000000E-01
                       5.00000000E-02  3.50000000E-01  2.50000000E-01
                       1.50000000E-01  3.50000000E-01  2.50000000E-01
                       2.50000000E-01  3.50000000E-01  2.50000000E-01
                       3.50000000E-01  3.50000000E-01  2.50000000E-01
                       4.50000000E-01  3.50000000E-01  2.50000000E-01
                      -4.50000000E-01  3.50000000E-01  2.50000000E-01
                      -3.50000000E-01  3.50000000E-01  2.50000000E-01
                      -2.50000000E-01  3.50000000E-01  2.50000000E-01
                      -1.50000000E-01  3.50000000E-01  2.50000000E-01
                      -5.00000000E-02  3.50000000E-01  2.50000000E-01
                       5.00000000E-02  4.50000000E-01  2.50000000E-01
                       1.50000000E-01  4.50000000E-01  2.50000000E-01
                       2.50000000E-01  4.50000000E-01  2.50000000E-01
                       3.50000000E-01  4.50000000E-01  2.50000000E-01
                       4.50000000E-01  4.50000000E-01  2.50000000E-01
                      -4.50000000E-01  4.50000000E-01  2.50000000E-01
                      -3.50000000E-01  4.50000000E-01  2.50000000E-01
                      -2.50000000E-01  4.50000000E-01  2.50000000E-01
                      -1.50000000E-01  4.50000000E-01  2.50000000E-01
                      -5.00000000E-02  4.50000000E-01  2.50000000E-01
              kpt5     5.00000000E-02  5.00000000E-02  2.50000000E-01
                       1.50000000E-01  5.00000000E-02  2.50000000E-01
                       2.50000000E-01  5.00000000E-02  2.50000000E-01
                       3.50000000E-01  5.00000000E-02  2.50000000E-01
                       4.50000000E-01  5.00000000E-02  2.50000000E-01
                      -4.50000000E-01  5.00000000E-02  2.50000000E-01
                      -3.50000000E-01  5.00000000E-02  2.50000000E-01
                      -2.50000000E-01  5.00000000E-02  2.50000000E-01
                      -1.50000000E-01  5.00000000E-02  2.50000000E-01
                      -5.00000000E-02  5.00000000E-02  2.50000000E-01
                       5.00000000E-02  1.50000000E-01  2.50000000E-01
                       1.50000000E-01  1.50000000E-01  2.50000000E-01
                       2.50000000E-01  1.50000000E-01  2.50000000E-01
                       3.50000000E-01  1.50000000E-01  2.50000000E-01
                       4.50000000E-01  1.50000000E-01  2.50000000E-01
                      -4.50000000E-01  1.50000000E-01  2.50000000E-01
                      -3.50000000E-01  1.50000000E-01  2.50000000E-01
                      -2.50000000E-01  1.50000000E-01  2.50000000E-01
                      -1.50000000E-01  1.50000000E-01  2.50000000E-01
                      -5.00000000E-02  1.50000000E-01  2.50000000E-01
                       5.00000000E-02  2.50000000E-01  2.50000000E-01
                       1.50000000E-01  2.50000000E-01  2.50000000E-01
                       2.50000000E-01  2.50000000E-01  2.50000000E-01
                       3.50000000E-01  2.50000000E-01  2.50000000E-01
                       4.50000000E-01  2.50000000E-01  2.50000000E-01
                      -4.50000000E-01  2.50000000E-01  2.50000000E-01
                      -3.50000000E-01  2.50000000E-01  2.50000000E-01
                      -2.50000000E-01  2.50000000E-01  2.50000000E-01
                      -1.50000000E-01  2.50000000E-01  2.50000000E-01
                      -5.00000000E-02  2.50000000E-01  2.50000000E-01
                       5.00000000E-02  3.50000000E-01  2.50000000E-01
                       1.50000000E-01  3.50000000E-01  2.50000000E-01
                       2.50000000E-01  3.50000000E-01  2.50000000E-01
                       3.50000000E-01  3.50000000E-01  2.50000000E-01
                       4.50000000E-01  3.50000000E-01  2.50000000E-01
                      -4.50000000E-01  3.50000000E-01  2.50000000E-01
                      -3.50000000E-01  3.50000000E-01  2.50000000E-01
                      -2.50000000E-01  3.50000000E-01  2.50000000E-01
                      -1.50000000E-01  3.50000000E-01  2.50000000E-01
                      -5.00000000E-02  3.50000000E-01  2.50000000E-01
                       5.00000000E-02  4.50000000E-01  2.50000000E-01
                       1.50000000E-01  4.50000000E-01  2.50000000E-01
                       2.50000000E-01  4.50000000E-01  2.50000000E-01
                       3.50000000E-01  4.50000000E-01  2.50000000E-01
                       4.50000000E-01  4.50000000E-01  2.50000000E-01
                      -4.50000000E-01  4.50000000E-01  2.50000000E-01
                      -3.50000000E-01  4.50000000E-01  2.50000000E-01
                      -2.50000000E-01  4.50000000E-01  2.50000000E-01
                      -1.50000000E-01  4.50000000E-01  2.50000000E-01
                      -5.00000000E-02  4.50000000E-01  2.50000000E-01
              kpt6     5.00000000E-02  5.00000000E-02  2.50000000E-01
                       1.50000000E-01  5.00000000E-02  2.50000000E-01
                       2.50000000E-01  5.00000000E-02  2.50000000E-01
                       3.50000000E-01  5.00000000E-02  2.50000000E-01
                       4.50000000E-01  5.00000000E-02  2.50000000E-01
                      -4.50000000E-01  5.00000000E-02  2.50000000E-01
                      -3.50000000E-01  5.00000000E-02  2.50000000E-01
                      -2.50000000E-01  5.00000000E-02  2.50000000E-01
                      -1.50000000E-01  5.00000000E-02  2.50000000E-01
                      -5.00000000E-02  5.00000000E-02  2.50000000E-01
                       5.00000000E-02  1.50000000E-01  2.50000000E-01
                       1.50000000E-01  1.50000000E-01  2.50000000E-01
                       2.50000000E-01  1.50000000E-01  2.50000000E-01
                       3.50000000E-01  1.50000000E-01  2.50000000E-01
                       4.50000000E-01  1.50000000E-01  2.50000000E-01
                      -4.50000000E-01  1.50000000E-01  2.50000000E-01
                      -3.50000000E-01  1.50000000E-01  2.50000000E-01
                      -2.50000000E-01  1.50000000E-01  2.50000000E-01
                      -1.50000000E-01  1.50000000E-01  2.50000000E-01
                      -5.00000000E-02  1.50000000E-01  2.50000000E-01
                       5.00000000E-02  2.50000000E-01  2.50000000E-01
                       1.50000000E-01  2.50000000E-01  2.50000000E-01
                       2.50000000E-01  2.50000000E-01  2.50000000E-01
                       3.50000000E-01  2.50000000E-01  2.50000000E-01
                       4.50000000E-01  2.50000000E-01  2.50000000E-01
                      -4.50000000E-01  2.50000000E-01  2.50000000E-01
                      -3.50000000E-01  2.50000000E-01  2.50000000E-01
                      -2.50000000E-01  2.50000000E-01  2.50000000E-01
                      -1.50000000E-01  2.50000000E-01  2.50000000E-01
                      -5.00000000E-02  2.50000000E-01  2.50000000E-01
                       5.00000000E-02  3.50000000E-01  2.50000000E-01
                       1.50000000E-01  3.50000000E-01  2.50000000E-01
                       2.50000000E-01  3.50000000E-01  2.50000000E-01
                       3.50000000E-01  3.50000000E-01  2.50000000E-01
                       4.50000000E-01  3.50000000E-01  2.50000000E-01
                      -4.50000000E-01  3.50000000E-01  2.50000000E-01
                      -3.50000000E-01  3.50000000E-01  2.50000000E-01
                      -2.50000000E-01  3.50000000E-01  2.50000000E-01
                      -1.50000000E-01  3.50000000E-01  2.50000000E-01
                      -5.00000000E-02  3.50000000E-01  2.50000000E-01
                       5.00000000E-02  4.50000000E-01  2.50000000E-01
                       1.50000000E-01  4.50000000E-01  2.50000000E-01
                       2.50000000E-01  4.50000000E-01  2.50000000E-01
                       3.50000000E-01  4.50000000E-01  2.50000000E-01
                       4.50000000E-01  4.50000000E-01  2.50000000E-01
                      -4.50000000E-01  4.50000000E-01  2.50000000E-01
                      -3.50000000E-01  4.50000000E-01  2.50000000E-01
                      -2.50000000E-01  4.50000000E-01  2.50000000E-01
                      -1.50000000E-01  4.50000000E-01  2.50000000E-01
                      -5.00000000E-02  4.50000000E-01  2.50000000E-01
                       outvar_i_n : Printing only first  50 k-points.
           kptopt1          1
           kptopt2          1
           kptopt3          2
           kptopt4          2
           kptopt5          2
           kptopt6          2
         kptrlatt       10    0    0      0   10    0      0    0    2
          kptrlen      7.76243168E+01
P           mkmem1          3
P           mkmem2          3
P           mkmem3         17
P           mkmem4         17
P           mkmem5         17
P           mkmem6         17
P          mkqmem1          3
P          mkqmem2          3
P          mkqmem3         17
P          mkqmem4         17
P          mkqmem5         17
P          mkqmem6         17
P          mk1mem1          3
P          mk1mem2          3
P          mk1mem3         17
P          mk1mem4         17
P          mk1mem5         17
P          mk1mem6         17
            natom          12
            nband1         98
            nband2        210
            nband3        210
            nband4        210
            nband5        210
            nband6        210
           nbdbuf1          0
           nbdbuf2          2
           nbdbuf3          2
           nbdbuf4          2
           nbdbuf5          2
           nbdbuf6          2
           ndtset           6
            ngfft          36      36     192
             nkpt1         15
             nkpt2         15
             nkpt3        100
             nkpt4        100
             nkpt5        100
             nkpt6        100
            nline1          4
            nline2          4
            nline3          4
            nline4          0
            nline5          0
            nline6          0
             nqpt1          0
             nqpt2          0
             nqpt3          0
             nqpt4          1
             nqpt5          1
             nqpt6          1
            nstep1        400
            nstep2        200
            nstep3        200
            nstep4          1
            nstep5          1
            nstep6          1
             nsym           8
           ntypat           3
              occ1     2.000000  2.000000  2.000000  2.000000  2.000000  2.000000
                       2.000000  2.000000  2.000000  2.000000  2.000000  2.000000
                       2.000000  2.000000  2.000000  2.000000  2.000000  2.000000
                       2.000000  2.000000  2.000000  2.000000  2.000000  2.000000
                       2.000000  2.000000  2.000000  2.000000  2.000000  2.000000
                       2.000000  2.000000  2.000000  2.000000  2.000000  2.000000
                       2.000000  2.000000  2.000000  2.000000  2.000000  2.000000
                       2.000000  2.000000  2.000000  2.000000  2.000000  2.000000
                       2.000000  2.000000  2.000000  2.000000  2.000000  2.000000
                       2.000000  2.000000  2.000000  2.000000  2.000000  2.000000
                       2.000000  2.000000  2.000000  2.000000  2.000000  2.000000
                       2.000000  2.000000  2.000000  2.000000  2.000000  2.000000
                       2.000000  2.000000  2.000000  2.000000  2.000000  2.000000
                       2.000000  2.000000  2.000000  2.000000  2.000000  2.000000
                       2.000000  2.000000  2.000000  2.000000  2.000000  2.000000
                       2.000000  2.000000  2.000000  2.000000  2.000000  2.000000
                       0.000000  0.000000
              occ4     2.000000  2.000000  2.000000  2.000000  2.000000  2.000000
                       2.000000  2.000000  2.000000  2.000000  2.000000  2.000000
                       2.000000  2.000000  2.000000  2.000000  2.000000  2.000000
                       2.000000  2.000000  2.000000  2.000000  2.000000  2.000000
                       2.000000  2.000000  2.000000  2.000000  2.000000  2.000000
                       2.000000  2.000000  2.000000  2.000000  2.000000  2.000000
                       2.000000  2.000000  2.000000  2.000000  2.000000  2.000000
                       2.000000  2.000000  2.000000  2.000000  2.000000  2.000000
                       2.000000  2.000000  2.000000  2.000000  2.000000  2.000000
                       2.000000  2.000000  2.000000  2.000000  2.000000  2.000000
                       2.000000  2.000000  2.000000  2.000000  2.000000  2.000000
                       2.000000  2.000000  2.000000  2.000000  2.000000  2.000000
                       2.000000  2.000000  2.000000  2.000000  2.000000  2.000000
                       2.000000  2.000000  2.000000  2.000000  2.000000  2.000000
                       2.000000  2.000000  2.000000  2.000000  2.000000  2.000000
                       2.000000  2.000000  2.000000  2.000000  2.000000  2.000000
                       0.000000  0.000000  0.000000  0.000000  0.000000  0.000000
                       0.000000  0.000000  0.000000  0.000000  0.000000  0.000000
                       0.000000  0.000000  0.000000  0.000000  0.000000  0.000000
                       0.000000  0.000000  0.000000  0.000000  0.000000  0.000000
                       0.000000  0.000000  0.000000  0.000000  0.000000  0.000000
                       0.000000  0.000000  0.000000  0.000000  0.000000  0.000000
                       0.000000  0.000000  0.000000  0.000000  0.000000  0.000000
                       0.000000  0.000000  0.000000  0.000000  0.000000  0.000000
                       0.000000  0.000000  0.000000  0.000000  0.000000  0.000000
                       0.000000  0.000000  0.000000  0.000000  0.000000  0.000000
                       0.000000  0.000000  0.000000  0.000000  0.000000  0.000000
                       0.000000  0.000000  0.000000  0.000000  0.000000  0.000000
                       0.000000  0.000000  0.000000  0.000000  0.000000  0.000000
                       0.000000  0.000000  0.000000  0.000000  0.000000  0.000000
                       0.000000  0.000000  0.000000  0.000000  0.000000  0.000000
                       0.000000  0.000000  0.000000  0.000000  0.000000  0.000000
                       0.000000  0.000000  0.000000  0.000000  0.000000  0.000000
                       0.000000  0.000000  0.000000  0.000000  0.000000  0.000000
                       0.000000  0.000000  0.000000  0.000000  0.000000  0.000000
              occ5     2.000000  2.000000  2.000000  2.000000  2.000000  2.000000
                       2.000000  2.000000  2.000000  2.000000  2.000000  2.000000
                       2.000000  2.000000  2.000000  2.000000  2.000000  2.000000
                       2.000000  2.000000  2.000000  2.000000  2.000000  2.000000
                       2.000000  2.000000  2.000000  2.000000  2.000000  2.000000
                       2.000000  2.000000  2.000000  2.000000  2.000000  2.000000
                       2.000000  2.000000  2.000000  2.000000  2.000000  2.000000
                       2.000000  2.000000  2.000000  2.000000  2.000000  2.000000
                       2.000000  2.000000  2.000000  2.000000  2.000000  2.000000
                       2.000000  2.000000  2.000000  2.000000  2.000000  2.000000
                       2.000000  2.000000  2.000000  2.000000  2.000000  2.000000
                       2.000000  2.000000  2.000000  2.000000  2.000000  2.000000
                       2.000000  2.000000  2.000000  2.000000  2.000000  2.000000
                       2.000000  2.000000  2.000000  2.000000  2.000000  2.000000
                       2.000000  2.000000  2.000000  2.000000  2.000000  2.000000
                       2.000000  2.000000  2.000000  2.000000  2.000000  2.000000
                       0.000000  0.000000  0.000000  0.000000  0.000000  0.000000
                       0.000000  0.000000  0.000000  0.000000  0.000000  0.000000
                       0.000000  0.000000  0.000000  0.000000  0.000000  0.000000
                       0.000000  0.000000  0.000000  0.000000  0.000000  0.000000
                       0.000000  0.000000  0.000000  0.000000  0.000000  0.000000
                       0.000000  0.000000  0.000000  0.000000  0.000000  0.000000
                       0.000000  0.000000  0.000000  0.000000  0.000000  0.000000
                       0.000000  0.000000  0.000000  0.000000  0.000000  0.000000
                       0.000000  0.000000  0.000000  0.000000  0.000000  0.000000
                       0.000000  0.000000  0.000000  0.000000  0.000000  0.000000
                       0.000000  0.000000  0.000000  0.000000  0.000000  0.000000
                       0.000000  0.000000  0.000000  0.000000  0.000000  0.000000
                       0.000000  0.000000  0.000000  0.000000  0.000000  0.000000
                       0.000000  0.000000  0.000000  0.000000  0.000000  0.000000
                       0.000000  0.000000  0.000000  0.000000  0.000000  0.000000
                       0.000000  0.000000  0.000000  0.000000  0.000000  0.000000
                       0.000000  0.000000  0.000000  0.000000  0.000000  0.000000
                       0.000000  0.000000  0.000000  0.000000  0.000000  0.000000
                       0.000000  0.000000  0.000000  0.000000  0.000000  0.000000
              occ6     2.000000  2.000000  2.000000  2.000000  2.000000  2.000000
                       2.000000  2.000000  2.000000  2.000000  2.000000  2.000000
                       2.000000  2.000000  2.000000  2.000000  2.000000  2.000000
                       2.000000  2.000000  2.000000  2.000000  2.000000  2.000000
                       2.000000  2.000000  2.000000  2.000000  2.000000  2.000000
                       2.000000  2.000000  2.000000  2.000000  2.000000  2.000000
                       2.000000  2.000000  2.000000  2.000000  2.000000  2.000000
                       2.000000  2.000000  2.000000  2.000000  2.000000  2.000000
                       2.000000  2.000000  2.000000  2.000000  2.000000  2.000000
                       2.000000  2.000000  2.000000  2.000000  2.000000  2.000000
                       2.000000  2.000000  2.000000  2.000000  2.000000  2.000000
                       2.000000  2.000000  2.000000  2.000000  2.000000  2.000000
                       2.000000  2.000000  2.000000  2.000000  2.000000  2.000000
                       2.000000  2.000000  2.000000  2.000000  2.000000  2.000000
                       2.000000  2.000000  2.000000  2.000000  2.000000  2.000000
                       2.000000  2.000000  2.000000  2.000000  2.000000  2.000000
                       0.000000  0.000000  0.000000  0.000000  0.000000  0.000000
                       0.000000  0.000000  0.000000  0.000000  0.000000  0.000000
                       0.000000  0.000000  0.000000  0.000000  0.000000  0.000000
                       0.000000  0.000000  0.000000  0.000000  0.000000  0.000000
                       0.000000  0.000000  0.000000  0.000000  0.000000  0.000000
                       0.000000  0.000000  0.000000  0.000000  0.000000  0.000000
                       0.000000  0.000000  0.000000  0.000000  0.000000  0.000000
                       0.000000  0.000000  0.000000  0.000000  0.000000  0.000000
                       0.000000  0.000000  0.000000  0.000000  0.000000  0.000000
                       0.000000  0.000000  0.000000  0.000000  0.000000  0.000000
                       0.000000  0.000000  0.000000  0.000000  0.000000  0.000000
                       0.000000  0.000000  0.000000  0.000000  0.000000  0.000000
                       0.000000  0.000000  0.000000  0.000000  0.000000  0.000000
                       0.000000  0.000000  0.000000  0.000000  0.000000  0.000000
                       0.000000  0.000000  0.000000  0.000000  0.000000  0.000000
                       0.000000  0.000000  0.000000  0.000000  0.000000  0.000000
                       0.000000  0.000000  0.000000  0.000000  0.000000  0.000000
                       0.000000  0.000000  0.000000  0.000000  0.000000  0.000000
                       0.000000  0.000000  0.000000  0.000000  0.000000  0.000000
        optdriver1          0
        optdriver2          0
        optdriver3          0
        optdriver4          1
        optdriver5          1
        optdriver6          1
            prtwf1          1
            prtwf2          1
            prtwf3          1
            prtwf4          3
            prtwf5          3
            prtwf6          3
            rfdir1          0       0       0
            rfdir2          0       0       0
            rfdir3          0       0       0
            rfdir4          1       0       0
            rfdir5          0       1       0
            rfdir6          0       0       1
           rfelfd1          0
           rfelfd2          0
           rfelfd3          0
           rfelfd4          2
           rfelfd5          2
           rfelfd6          2
            rprim      1.0000000000E+00  0.0000000000E+00  0.0000000000E+00
                       0.0000000000E+00  1.0000000000E+00  0.0000000000E+00
                       0.0000000000E+00  0.0000000000E+00  5.7277782079E+00
           shiftk      5.00000000E-01  5.00000000E-01  5.00000000E-01
          spgroup          99
           symrel      1  0  0   0  1  0   0  0  1       1  0  0   0 -1  0   0  0  1
                      -1  0  0   0 -1  0   0  0  1      -1  0  0   0  1  0   0  0  1
                       0  1  0   1  0  0   0  0  1       0  1  0  -1  0  0   0  0  1
                       0 -1  0  -1  0  0   0  0  1       0 -1  0   1  0  0   0  0  1
            tnons      0.0000000  0.0000000  0.0000000     0.0000000  0.0000000  0.0000000
                       0.0000000  0.0000000  0.0000000     0.0000000  0.0000000  0.0000000
                       0.5000000  0.5000000  0.0000000     0.5000000  0.5000000  0.0000000
                       0.5000000  0.5000000  0.0000000     0.5000000  0.5000000  0.0000000
           tolwfr      1.00000000E-20
            typat      1  1  1  1  2  2  2  2  2  2  3  3
           vdw_xc           5
              wtk1       0.04000    0.08000    0.08000    0.08000    0.08000    0.04000
                         0.08000    0.08000    0.08000    0.04000    0.08000    0.08000
                         0.04000    0.08000    0.04000
              wtk2       0.04000    0.08000    0.08000    0.08000    0.08000    0.04000
                         0.08000    0.08000    0.08000    0.04000    0.08000    0.08000
                         0.04000    0.08000    0.04000
              wtk3       0.01000    0.01000    0.01000    0.01000    0.01000    0.01000
                         0.01000    0.01000    0.01000    0.01000    0.01000    0.01000
                         0.01000    0.01000    0.01000    0.01000    0.01000    0.01000
                         0.01000    0.01000    0.01000    0.01000    0.01000    0.01000
                         0.01000    0.01000    0.01000    0.01000    0.01000    0.01000
                         0.01000    0.01000    0.01000    0.01000    0.01000    0.01000
                         0.01000    0.01000    0.01000    0.01000    0.01000    0.01000
                         0.01000    0.01000    0.01000    0.01000    0.01000    0.01000
                         0.01000    0.01000
              wtk4       0.01000    0.01000    0.01000    0.01000    0.01000    0.01000
                         0.01000    0.01000    0.01000    0.01000    0.01000    0.01000
                         0.01000    0.01000    0.01000    0.01000    0.01000    0.01000
                         0.01000    0.01000    0.01000    0.01000    0.01000    0.01000
                         0.01000    0.01000    0.01000    0.01000    0.01000    0.01000
                         0.01000    0.01000    0.01000    0.01000    0.01000    0.01000
                         0.01000    0.01000    0.01000    0.01000    0.01000    0.01000
                         0.01000    0.01000    0.01000    0.01000    0.01000    0.01000
                         0.01000    0.01000
              wtk5       0.01000    0.01000    0.01000    0.01000    0.01000    0.01000
                         0.01000    0.01000    0.01000    0.01000    0.01000    0.01000
                         0.01000    0.01000    0.01000    0.01000    0.01000    0.01000
                         0.01000    0.01000    0.01000    0.01000    0.01000    0.01000
                         0.01000    0.01000    0.01000    0.01000    0.01000    0.01000
                         0.01000    0.01000    0.01000    0.01000    0.01000    0.01000
                         0.01000    0.01000    0.01000    0.01000    0.01000    0.01000
                         0.01000    0.01000    0.01000    0.01000    0.01000    0.01000
                         0.01000    0.01000
              wtk6       0.01000    0.01000    0.01000    0.01000    0.01000    0.01000
                         0.01000    0.01000    0.01000    0.01000    0.01000    0.01000
                         0.01000    0.01000    0.01000    0.01000    0.01000    0.01000
                         0.01000    0.01000    0.01000    0.01000    0.01000    0.01000
                         0.01000    0.01000    0.01000    0.01000    0.01000    0.01000
                         0.01000    0.01000    0.01000    0.01000    0.01000    0.01000
                         0.01000    0.01000    0.01000    0.01000    0.01000    0.01000
                         0.01000    0.01000    0.01000    0.01000    0.01000    0.01000
                         0.01000    0.01000
                       outvars : Printing only first  50 k-points.
           xangst      2.0538509643E+00  0.0000000000E+00  4.6664740448E+00
                       0.0000000000E+00  2.0538509643E+00  7.4160979462E+00
                       2.0538509643E+00  0.0000000000E+00  1.0102196232E+01
                       0.0000000000E+00  2.0538509643E+00  1.2851820134E+01
                       0.0000000000E+00  2.0538509643E+00  4.6982368524E+00
                       2.0538509643E+00  0.0000000000E+00  7.3843351386E+00
                       0.0000000000E+00  2.0538509643E+00  1.0133959040E+01
                       2.0538509643E+00  0.0000000000E+00  1.2820057326E+01
                       2.0538509643E+00  0.0000000000E+00  1.5871522011E+01
                       0.0000000000E+00  2.0538509643E+00  1.8861531546E+01
                       2.0538509643E+00  2.0538509643E+00  1.7366538543E+01
                       0.0000000000E+00  0.0000000000E+00  1.7366538543E+01
            xcart      3.8812158402E+00  0.0000000000E+00  8.8183579509E+00
                       0.0000000000E+00  3.8812158402E+00  1.4014394093E+01
                       3.8812158402E+00  0.0000000000E+00  1.9090384220E+01
                       0.0000000000E+00  3.8812158402E+00  2.4286420362E+01
                       0.0000000000E+00  3.8812158402E+00  8.8783809584E+00
                       3.8812158402E+00  0.0000000000E+00  1.3954371085E+01
                       0.0000000000E+00  3.8812158402E+00  1.9150407227E+01
                       3.8812158402E+00  0.0000000000E+00  2.4226397354E+01
                       3.8812158402E+00  0.0000000000E+00  2.9992829913E+01
                       0.0000000000E+00  3.8812158402E+00  3.5643129068E+01
                       3.8812158402E+00  3.8812158402E+00  3.2818001722E+01
                       0.0000000000E+00  0.0000000000E+00  3.2818001722E+01
             xred      5.0000000000E-01  0.0000000000E+00  1.9833700000E-01
                       0.0000000000E+00  5.0000000000E-01  3.1520300000E-01
                       5.0000000000E-01  0.0000000000E+00  4.2936900000E-01
                       0.0000000000E+00  5.0000000000E-01  5.4623500000E-01
                       0.0000000000E+00  5.0000000000E-01  1.9968700000E-01
                       5.0000000000E-01  0.0000000000E+00  3.1385300000E-01
                       0.0000000000E+00  5.0000000000E-01  4.3071900000E-01
                       5.0000000000E-01  0.0000000000E+00  5.4488500000E-01
                       5.0000000000E-01  0.0000000000E+00  6.7458000000E-01
                       0.0000000000E+00  5.0000000000E-01  8.0166300000E-01
                       5.0000000000E-01  5.0000000000E-01  7.3812200000E-01
                       0.0000000000E+00  0.0000000000E+00  7.3812200000E-01
            znucl       50.00000   34.00000   30.00000

================================================================================

 chkinp: Checking input parameters for consistency, jdtset=   1.

 chkinp: Checking input parameters for consistency, jdtset=   2.

 chkinp: Checking input parameters for consistency, jdtset=   3.

 chkinp: Checking input parameters for consistency, jdtset=   4.

 chkinp: Checking input parameters for consistency, jdtset=   5.

 chkinp: Checking input parameters for consistency, jdtset=   6.

================================================================================
== DATASET  1 ==================================================================
-   mpi_nproc: 6, omp_nthreads: -1 (-1 if OMP is not activated)


--- !DatasetInfo
iteration_state: {dtset: 1, }
dimensions: {natom: 12, nkpt: 15, mband: 98, nsppol: 1, nspinor: 1, nspden: 1, mpw: 13694, }
cutoff_energies: {ecut:  22.5, pawecutdg:  -1.0, }
electrons: {nelect:   1.92000000E+02, charge:   0.00000000E+00, occopt:   1.00000000E+00, tsmear:   1.00000000E-02, }
meta: {optdriver: 0, ionmov: 0, optcell: 0, iscf: 7, paral_kgb: 0, }
...

 Exchange-correlation functional for the present dataset will be:
  GGA: Perdew-Burke-Ernzerhof functional - ixc=11
 Citation for XC functional:
  J.P.Perdew, K.Burke, M.Ernzerhof, PRL 77, 3865 (1996)

 Real(R)+Recip(G) space primitive vectors, cartesian coordinates (Bohr,Bohr^-1):
 R(1)=  7.7624317  0.0000000  0.0000000  G(1)=  0.1288256  0.0000000  0.0000000
 R(2)=  0.0000000  7.7624317  0.0000000  G(2)=  0.0000000  0.1288256  0.0000000
 R(3)=  0.0000000  0.0000000 44.4614870  G(3)=  0.0000000  0.0000000  0.0224914
 Unit cell volume ucvol=  2.6790423E+03 bohr^3
 Angles (23,13,12)=  9.00000000E+01  9.00000000E+01  9.00000000E+01 degrees

 getcut: wavevector=  0.0000  0.0000  0.0000  ngfft=  36  36 192
         ecut(hartree)=     22.500   => boxcut(ratio)=   2.02237

--- Pseudopotential description ------------------------------------------------
- pspini: atom type   1  psp file is ../../../Psps_for_tests/ATOMICDATA_NC/Sn.psp8
- pspatm: opening atomic psp file    ../../../Psps_for_tests/ATOMICDATA_NC/Sn.psp8
- Sn    ONCVPSP  r_core=  2.27  2.62  1.86
- 50.00000  14.00000    150810                znucl, zion, pspdat
    8   11    2    4       600   0.00000      pspcod,pspxc,lmax,lloc,mmax,r2well
    5.99000000000000    6.50000000000000    0.00000000000000   rchrg,fchrg,qchrg
     nproj     2     2     2
     extension_switch     1
  pspatm : epsatm=   32.65190642
         --- l  ekb(1:nproj) -->
             0    5.462393    0.682281
             1    4.443814    0.825686
             2   -5.382195   -1.704077
 pspatm: atomic psp has been read  and splines computed

- pspini: atom type   2  psp file is ../../../Psps_for_tests/ATOMICDATA_NC/Se.psp8
- pspatm: opening atomic psp file    ../../../Psps_for_tests/ATOMICDATA_NC/Se.psp8
- Se    ONCVPSP  r_core=  1.82  1.50  1.91
- 34.00000  16.00000    150729                znucl, zion, pspdat
    8   11    2    4       600   0.00000      pspcod,pspxc,lmax,lloc,mmax,r2well
    5.99000000000000    5.00000000000000    0.00000000000000   rchrg,fchrg,qchrg
     nproj     2     2     2
     extension_switch     1
  pspatm : epsatm=   29.53325930
         --- l  ekb(1:nproj) -->
             0    8.612261    0.939919
             1    6.984962    1.281898
             2   -9.322521   -3.856218
 pspatm: atomic psp has been read  and splines computed

- pspini: atom type   3  psp file is ../../../Psps_for_tests/ATOMICDATA_NC/Zn.psp8
- pspatm: opening atomic psp file    ../../../Psps_for_tests/ATOMICDATA_NC/Zn.psp8
- Zn    ONCVPSP  r_core=  1.36  1.66  1.85
- 30.00000  20.00000    161102                znucl, zion, pspdat
    8   11    2    4       600   0.00000      pspcod,pspxc,lmax,lloc,mmax,r2well
    5.99000000000000    2.50000000000000    0.00000000000000   rchrg,fchrg,qchrg
     nproj     2     2     2
     extension_switch     1
  pspatm : epsatm=   26.67245340
         --- l  ekb(1:nproj) -->
             0    2.404235   -1.533451
             1   -4.677427   -1.530630
             2   -7.000316   -2.622858
 pspatm: atomic psp has been read  and splines computed

   6.93412010E+04                                ecore*ucvol(ha*bohr**3)
--------------------------------------------------------------------------------

_setup2: Arith. and geom. avg. npw (full set) are   13657.560   13657.554

================================================================================

--- !BeginCycle
iteration_state: {dtset: 1, }
solver: {iscf: 7, nstep: 400, nline: 4, wfoptalg: 0, }
tolerances: {tolwfr: 1.00E-20, }
...

     iter   Etot(hartree)      deltaE(h)  residm     vres2
 ETOT  1  -1287.4911155741    -1.287E+03 7.471E-01 1.015E+07
 ETOT  2   1600.1819959805     2.888E+03 4.747E-01 3.279E+08
 ETOT  3  -1002.9826052874    -2.603E+03 1.602E+00 4.234E+07
 ETOT  4  -1440.3654637225    -4.374E+02 5.470E-01 2.156E+05
 ETOT  5  -1450.7145799220    -1.035E+01 4.777E-02 2.309E+04
 ETOT  6  -1450.9920405563    -2.775E-01 1.731E-02 5.147E+04
 ETOT  7  -1449.1675516089     1.824E+00 2.869E-02 3.506E+05
 ETOT  8  -1449.7740040148    -6.065E-01 8.088E-03 2.777E+05
 ETOT  9  -1450.6151087270    -8.411E-01 1.691E-03 2.089E+05
 ETOT 10  -1451.4207880441    -8.057E-01 1.265E-02 1.682E+05
 ETOT 11  -1452.3329756828    -9.122E-01 2.297E-03 6.634E+04
 ETOT 12  -1452.9320980110    -5.991E-01 7.824E-03 1.981E+02
 ETOT 13  -1452.9310138377     1.084E-03 2.195E-03 1.271E+03
 ETOT 14  -1452.9364534920    -5.440E-03 2.472E-03 5.693E+02
 ETOT 15  -1452.9386441668    -2.191E-03 2.885E-03 2.934E+02
 ETOT 16  -1452.9403839796    -1.740E-03 2.729E-03 2.884E+01
 ETOT 17  -1452.9404604044    -7.642E-05 6.558E-03 2.192E+01
 ETOT 18  -1452.9405638247    -1.034E-04 2.270E-03 5.330E+00
 ETOT 19  -1452.9405669199    -3.095E-06 9.565E-04 4.218E+00
 ETOT 20  -1452.9405830720    -1.615E-05 1.146E-04 1.954E+00
 ETOT 21  -1452.9405924870    -9.415E-06 2.257E-04 2.346E-01
 ETOT 22  -1452.9405936995    -1.213E-06 1.261E-04 3.274E-02
 ETOT 23  -1452.9405939188    -2.193E-07 2.387E-04 9.392E-03
 ETOT 24  -1452.9405940156    -9.678E-08 3.057E-04 2.346E-03
 ETOT 25  -1452.9405940441    -2.849E-08 3.892E-04 2.380E-04
 ETOT 26  -1452.9405940469    -2.881E-09 4.880E-04 8.844E-05
 ETOT 27  -1452.9405940474    -4.227E-10 5.035E-04 4.427E-05
 ETOT 28  -1452.9405940478    -4.436E-10 4.217E-04 1.533E-05
 ETOT 29  -1452.9405940482    -3.636E-10 3.841E-04 1.123E-05
 ETOT 30  -1452.9405940480     1.814E-10 2.334E-04 1.536E-06
 ETOT 31  -1452.9405940478     1.664E-10 4.819E-04 4.701E-07
 ETOT 32  -1452.9405940480    -1.594E-10 2.383E-04 1.553E-08
 ETOT 33  -1452.9405940481    -8.572E-11 4.317E-04 1.793E-09
 ETOT 34  -1452.9405940477     4.131E-10 1.785E-04 3.831E-09
 ETOT 35  -1452.9405940479    -2.706E-10 2.854E-04 3.736E-10
 ETOT 36  -1452.9405940480    -7.640E-11 1.055E-04 7.402E-11
 ETOT 37  -1452.9405940483    -3.399E-10 1.533E-04 4.827E-12
 ETOT 38  -1452.9405940479     4.850E-10 5.372E-05 1.289E-12
 ETOT 39  -1452.9405940482    -3.847E-10 7.334E-05 1.512E-13
 ETOT 40  -1452.9405940484    -1.105E-10 2.519E-05 9.047E-14
 ETOT 41  -1452.9405940479     4.388E-10 3.313E-05 2.244E-14
 ETOT 42  -1452.9405940480    -7.913E-11 1.133E-05 1.061E-14
 ETOT 43  -1452.9405940480     1.978E-11 1.456E-05 6.444E-15
 ETOT 44  -1452.9405940480    -5.025E-11 4.988E-06 3.964E-15
 ETOT 45  -1452.9405940479     9.277E-11 6.315E-06 1.571E-15
 ETOT 46  -1452.9405940479    -1.091E-11 2.173E-06 5.570E-16
 ETOT 47  -1452.9405940479     3.183E-11 2.722E-06 2.389E-16
 ETOT 48  -1452.9405940479    -7.276E-12 9.410E-07 1.341E-16
 ETOT 49  -1452.9405940479     2.137E-11 1.170E-06 8.933E-17
 ETOT 50  -1452.9405940479    -1.774E-11 4.061E-07 6.820E-17
 ETOT 51  -1452.9405940479    -4.775E-12 5.018E-07 4.968E-17
 ETOT 52  -1452.9405940479    -1.796E-11 1.749E-07 4.302E-17
 ETOT 53  -1452.9405940479    -4.547E-13 2.151E-07 3.514E-17
 ETOT 54  -1452.9405940479     8.868E-12 7.523E-08 3.084E-17
 ETOT 55  -1452.9405940479    -2.728E-12 9.212E-08 2.954E-17
 ETOT 56  -1452.9405940479     5.002E-12 3.233E-08 3.000E-17
 ETOT 57  -1452.9405940479     1.000E-11 3.945E-08 2.660E-17
 ETOT 58  -1452.9405940479    -4.320E-12 1.389E-08 2.468E-17
 ETOT 59  -1452.9405940479     8.640E-12 1.689E-08 2.252E-17
 ETOT 60  -1452.9405940479    -4.775E-12 5.961E-09 2.029E-17
 ETOT 61  -1452.9405940479     1.137E-12 7.232E-09 1.874E-17
 ETOT 62  -1452.9405940479    -4.093E-12 2.558E-09 1.765E-17
 ETOT 63  -1452.9405940479     7.049E-12 3.096E-09 1.644E-17
 ETOT 64  -1452.9405940479    -1.137E-12 1.098E-09 1.539E-17
 ETOT 65  -1452.9405940479    -3.183E-12 1.325E-09 1.411E-17
 ETOT 66  -1452.9405940479    -1.819E-12 4.708E-10 1.322E-17
 ETOT 67  -1452.9405940479     7.731E-12 5.673E-10 1.177E-17
 ETOT 68  -1452.9405940479     3.183E-12 2.020E-10 1.234E-17
 ETOT 69  -1452.9405940479    -1.819E-12 2.428E-10 1.163E-17
 ETOT 70  -1452.9405940479     2.501E-12 8.662E-11 1.060E-17
 ETOT 71  -1452.9405940479     2.956E-12 1.039E-10 1.063E-17
 ETOT 72  -1452.9405940479     1.819E-12 3.715E-11 9.363E-18
 ETOT 73  -1452.9405940479    -5.002E-12 5.092E-11 9.218E-18
 ETOT 74  -1452.9405940479     0.000E+00 1.829E-11 8.391E-18
 ETOT 75  -1452.9405940479    -2.956E-12 2.620E-11 7.776E-18
 ETOT 76  -1452.9405940479    -9.095E-13 9.414E-12 7.734E-18
 ETOT 77  -1452.9405940479    -2.501E-12 1.348E-11 7.762E-18
 ETOT 78  -1452.9405940479    -9.095E-12 4.845E-12 6.870E-18
 ETOT 79  -1452.9405940479    -2.728E-12 6.936E-12 6.634E-18
 ETOT 80  -1452.9405940479    -3.638E-12 2.494E-12 6.725E-18
 ETOT 81  -1452.9405940479    -2.728E-12 3.569E-12 6.355E-18
 ETOT 82  -1452.9405940479    -3.638E-12 1.284E-12 6.640E-18
 ETOT 83  -1452.9405940479    -6.821E-13 1.836E-12 6.087E-18
 ETOT 84  -1452.9405940479     2.274E-13 6.607E-13 5.872E-18
 ETOT 85  -1452.9405940479    -2.274E-13 9.451E-13 5.707E-18
 ETOT 86  -1452.9405940479    -1.592E-12 3.401E-13 5.304E-18
 ETOT 87  -1452.9405940479    -1.819E-12 4.864E-13 5.449E-18
 ETOT 88  -1452.9405940479     2.956E-12 1.751E-13 4.596E-18
 ETOT 89  -1452.9405940479    -1.819E-12 2.503E-13 5.100E-18
 ETOT 90  -1452.9405940479     2.956E-12 9.012E-14 5.491E-18
 ETOT 91  -1452.9405940479    -2.274E-12 1.288E-13 5.029E-18
 ETOT 92  -1452.9405940479    -2.046E-12 4.640E-14 4.148E-18
 ETOT 93  -1452.9405940479     3.411E-12 6.631E-14 5.091E-18
 ETOT 94  -1452.9405940479     2.274E-12 2.388E-14 4.369E-18
 ETOT 95  -1452.9405940479     3.638E-12 3.413E-14 4.166E-18
 ETOT 96  -1452.9405940479    -6.139E-12 1.230E-14 4.429E-18
 ETOT 97  -1452.9405940479     2.274E-12 1.809E-14 4.492E-18
 ETOT 98  -1452.9405940479    -1.592E-12 6.330E-15 3.826E-18
 ETOT 99  -1452.9405940479    -2.501E-12 1.006E-14 4.418E-18
 ETOT  100  -1452.9405940479     6.821E-13 3.259E-15 4.622E-18
 ETOT  101  -1452.9405940479     4.547E-13 5.600E-15 3.961E-18
 ETOT  102  -1452.9405940479     0.000E+00 1.784E-15 4.746E-18
 ETOT  103  -1452.9405940479     1.364E-12 3.117E-15 5.067E-18
 ETOT  104  -1452.9405940479     6.821E-13 9.928E-16 3.503E-18
 ETOT  105  -1452.9405940479    -1.364E-12 1.734E-15 3.665E-18
 ETOT  106  -1452.9405940479     4.547E-13 5.525E-16 3.223E-18
 ETOT  107  -1452.9405940479     9.095E-13 9.653E-16 3.451E-18
 ETOT  108  -1452.9405940479    -1.137E-12 3.075E-16 3.221E-18
 ETOT  109  -1452.9405940479    -1.364E-12 5.373E-16 3.439E-18
 ETOT  110  -1452.9405940479     2.274E-12 1.711E-16 4.272E-18
 ETOT  111  -1452.9405940479    -1.819E-12 2.990E-16 4.298E-18
 ETOT  112  -1452.9405940479     9.095E-13 9.527E-17 4.072E-18
 ETOT  113  -1452.9405940479    -1.364E-12 1.665E-16 3.462E-18
 ETOT  114  -1452.9405940479     9.095E-13 5.303E-17 3.360E-18
 ETOT  115  -1452.9405940479     6.821E-13 9.266E-17 3.229E-18
 ETOT  116  -1452.9405940479    -1.592E-12 2.952E-17 3.509E-18
 ETOT  117  -1452.9405940479    -6.821E-13 5.158E-17 3.900E-18
 ETOT  118  -1452.9405940479    -1.364E-12 1.643E-17 3.600E-18
 ETOT  119  -1452.9405940479     9.095E-13 2.871E-17 3.563E-18
 ETOT  120  -1452.9405940479     4.547E-13 9.149E-18 3.447E-18
 ETOT  121  -1452.9405940479    -1.592E-12 1.599E-17 3.943E-18
 ETOT  122  -1452.9405940479     2.274E-13 5.094E-18 3.219E-18
 ETOT  123  -1452.9405940479    -4.547E-13 8.899E-18 3.268E-18
 ETOT  124  -1452.9405940479     2.046E-12 2.836E-18 3.268E-18
 ETOT  125  -1452.9405940479    -1.364E-12 4.955E-18 4.607E-18
 ETOT  126  -1452.9405940479     9.095E-13 1.579E-18 4.042E-18
 ETOT  127  -1452.9405940479    -1.137E-12 2.758E-18 3.350E-18
 ETOT  128  -1452.9405940479     2.274E-13 8.793E-19 4.693E-18
 ETOT  129  -1452.9405940479     1.364E-12 1.536E-18 3.714E-18
 ETOT  130  -1452.9405940479     4.547E-13 4.896E-19 4.852E-18
 ETOT  131  -1452.9405940479     1.137E-12 8.551E-19 3.364E-18
 ETOT  132  -1452.9405940479     1.137E-12 2.726E-19 3.730E-18
 ETOT  133  -1452.9405940479     0.000E+00 4.761E-19 2.982E-18
 ETOT  134  -1452.9405940479    -2.274E-13 1.518E-19 3.454E-18
 ETOT  135  -1452.9405940479    -1.137E-12 2.651E-19 3.920E-18
 ETOT  136  -1452.9405940479     4.547E-13 8.454E-20 3.880E-18
 ETOT  137  -1452.9405940479     2.274E-13 1.476E-19 3.625E-18
 ETOT  138  -1452.9405940479    -1.364E-12 4.708E-20 2.481E-18
 ETOT  139  -1452.9405940479     1.592E-12 8.219E-20 4.207E-18
 ETOT  140  -1452.9405940479     2.274E-12 2.622E-20 3.182E-18
 ETOT  141  -1452.9405940479    -3.183E-12 4.577E-20 3.012E-18
 ETOT  142  -1452.9405940479     9.095E-13 1.460E-20 3.199E-18
 ETOT  143  -1452.9405940479    -2.274E-13 2.548E-20 2.972E-18
 ETOT  144  -1452.9405940479     1.592E-12 9.926E-21 3.169E-18

 At SCF step  144   max residual=  9.93E-21 < tolwfr=  1.00E-20 =>converged.

 Cartesian components of stress tensor (hartree/bohr^3)
  sigma(1 1)=  1.50479255E-02  sigma(3 2)=  0.00000000E+00
  sigma(2 2)=  1.50479255E-02  sigma(3 1)=  0.00000000E+00
  sigma(3 3)=  1.49087641E-02  sigma(2 1)=  0.00000000E+00


--- !ResultsGS
iteration_state: {dtset: 1, }
comment   : Summary of ground state results
lattice_vectors:
- [  7.7624317,   0.0000000,   0.0000000, ]
- [  0.0000000,   7.7624317,   0.0000000, ]
- [  0.0000000,   0.0000000,  44.4614870, ]
lattice_lengths: [   7.76243,    7.76243,   44.46149, ]
lattice_angles: [ 90.000,  90.000,  90.000, ] # degrees, (23, 13, 12)
lattice_volume:   2.6790423E+03
convergence: {deltae:  1.592E-12, res2:  3.169E-18, residm:  9.926E-21, diffor: null, }
etotal    :  -1.45294059E+03
entropy   :   0.00000000E+00
fermie    :   1.06764346E-01
cartesian_stress_tensor: # hartree/bohr^3
- [  1.50479255E-02,   0.00000000E+00,   0.00000000E+00, ]
- [  0.00000000E+00,   1.50479255E-02,   0.00000000E+00, ]
- [  0.00000000E+00,   0.00000000E+00,   1.49087641E-02, ]
pressure_GPa:  -4.4136E+02
xred      :
- [  5.0000E-01,   0.0000E+00,   1.9834E-01, Sn]
- [  0.0000E+00,   5.0000E-01,   3.1520E-01, Sn]
- [  5.0000E-01,   0.0000E+00,   4.2937E-01, Sn]
- [  0.0000E+00,   5.0000E-01,   5.4624E-01, Sn]
- [  0.0000E+00,   5.0000E-01,   1.9969E-01, Se]
- [  5.0000E-01,   0.0000E+00,   3.1385E-01, Se]
- [  0.0000E+00,   5.0000E-01,   4.3072E-01, Se]
- [  5.0000E-01,   0.0000E+00,   5.4489E-01, Se]
- [  5.0000E-01,   0.0000E+00,   6.7458E-01, Se]
- [  0.0000E+00,   5.0000E-01,   8.0166E-01, Se]
- [  5.0000E-01,   5.0000E-01,   7.3812E-01, Zn]
- [  0.0000E+00,   0.0000E+00,   7.3812E-01, Zn]
cartesian_forces: # hartree/bohr
- [ -0.00000000E+00,  -0.00000000E+00,  -1.42645433E-02, ]
- [ -0.00000000E+00,  -0.00000000E+00,  -1.93758537E-02, ]
- [ -0.00000000E+00,  -0.00000000E+00,   1.40844307E-02, ]
- [ -0.00000000E+00,  -0.00000000E+00,   1.10609361E-02, ]
- [ -0.00000000E+00,  -0.00000000E+00,  -1.57893886E-02, ]
- [ -0.00000000E+00,  -0.00000000E+00,  -1.63103897E-02, ]
- [ -0.00000000E+00,  -0.00000000E+00,   1.20441917E-02, ]
- [ -0.00000000E+00,  -0.00000000E+00,  -3.32931517E-03, ]
- [ -0.00000000E+00,  -0.00000000E+00,   1.29791621E-02, ]
- [ -0.00000000E+00,  -0.00000000E+00,  -1.25171952E-02, ]
- [ -0.00000000E+00,  -0.00000000E+00,   1.57089824E-02, ]
- [ -0.00000000E+00,  -0.00000000E+00,   1.57089824E-02, ]
force_length_stats: {min:   3.32931517E-03, max:   1.93758537E-02, mean:   1.35977809E-02, }
...

 Integrated electronic density in atomic spheres:
 ------------------------------------------------
 Atom  Sphere_radius  Integrated_density
    1        2.00000         10.57104791
    2        2.00000         10.56857676
    3        2.00000         10.56242936
    4        2.00000         10.56222169
    5        2.00000         13.27998649
    6        2.00000         13.32143074
    7        2.00000         13.30382362
    8        2.00000         13.27196421
    9        2.00000         13.26876770
   10        2.00000         13.29226332
   11        2.00000         18.09936521
   12        2.00000         18.09936521
================================================================================

 ----iterations are completed or convergence reached----

 Mean square residual over all n,k,spin=   37.209E-22; max=  99.257E-22
 reduced coordinates (array xred) for   12 atoms
       0.500000000000      0.000000000000      0.198337000000
       0.000000000000      0.500000000000      0.315203000000
       0.500000000000      0.000000000000      0.429369000000
       0.000000000000      0.500000000000      0.546235000000
       0.000000000000      0.500000000000      0.199687000000
       0.500000000000      0.000000000000      0.313853000000
       0.000000000000      0.500000000000      0.430719000000
       0.500000000000      0.000000000000      0.544885000000
       0.500000000000      0.000000000000      0.674580000000
       0.000000000000      0.500000000000      0.801663000000
       0.500000000000      0.500000000000      0.738122000000
       0.000000000000      0.000000000000      0.738122000000
 rms dE/dt=  3.6885E-01; max dE/dt=  7.4123E-01; dE/dt below (all hartree)
    1       0.000000000000      0.000000000000      0.513977144123
    2       0.000000000000      0.000000000000      0.741233605951
    3       0.000000000000      0.000000000000     -0.746460394814
    4       0.000000000000      0.000000000000     -0.612031330100
    5       0.000000000000      0.000000000000      0.581774033904
    6       0.000000000000      0.000000000000      0.604938518562
    7       0.000000000000      0.000000000000     -0.655748335433
    8       0.000000000000      0.000000000000      0.027780642000
    9       0.000000000000      0.000000000000     -0.697318510662
   10       0.000000000000      0.000000000000      0.436287450033
   11       0.000000000000      0.000000000000     -0.818690380037
   12       0.000000000000      0.000000000000     -0.818690380037

 cartesian coordinates (angstrom) at end:
    1      2.05385096425820     0.00000000000000     4.66647404481447
    2      0.00000000000000     2.05385096425820     7.41609794616059
    3      2.05385096425820     0.00000000000000    10.10219623241222
    4      0.00000000000000     2.05385096425820    12.85182013375835
    5      0.00000000000000     2.05385096425820     4.69823685236172
    6      2.05385096425820     0.00000000000000     7.38433513861334
    7      0.00000000000000     2.05385096425820    10.13395903995947
    8      2.05385096425820     0.00000000000000    12.82005732621109
    9      2.05385096425820     0.00000000000000    15.87152201127849
   10      0.00000000000000     2.05385096425820    18.86153154574335
   11      2.05385096425820     2.05385096425820    17.36653854251371
   12      0.00000000000000     0.00000000000000    17.36653854251371

 cartesian forces (hartree/bohr) at end:
    1     -0.00000000000000    -0.00000000000000    -0.01426454327148
    2     -0.00000000000000    -0.00000000000000    -0.01937585369009
    3     -0.00000000000000    -0.00000000000000     0.01408443071571
    4     -0.00000000000000    -0.00000000000000     0.01106093614261
    5     -0.00000000000000    -0.00000000000000    -0.01578938857753
    6     -0.00000000000000    -0.00000000000000    -0.01631038970030
    7     -0.00000000000000    -0.00000000000000     0.01204419172545
    8     -0.00000000000000    -0.00000000000000    -0.00332931517364
    9     -0.00000000000000    -0.00000000000000     0.01297916214627
   10     -0.00000000000000    -0.00000000000000    -0.01251719518893
   11     -0.00000000000000    -0.00000000000000     0.01570898243597
   12     -0.00000000000000    -0.00000000000000     0.01570898243597
 frms,max,avg= 8.1475627E-03 1.9375854E-02   0.000E+00  0.000E+00  2.704E-03 h/b

 cartesian forces (eV/Angstrom) at end:
    1     -0.00000000000000    -0.00000000000000    -0.73351224551402
    2     -0.00000000000000    -0.00000000000000    -0.99634637285529
    3     -0.00000000000000    -0.00000000000000     0.72425048628977
    4     -0.00000000000000    -0.00000000000000     0.56877615729021
    5     -0.00000000000000    -0.00000000000000    -0.81192293720023
    6     -0.00000000000000    -0.00000000000000    -0.83871388985874
    7     -0.00000000000000    -0.00000000000000     0.61933718800533
    8     -0.00000000000000    -0.00000000000000    -0.17120025524573
    9     -0.00000000000000    -0.00000000000000     0.66741529606787
   10     -0.00000000000000    -0.00000000000000    -0.64366000199467
   11     -0.00000000000000    -0.00000000000000     0.80778828750775
   12     -0.00000000000000    -0.00000000000000     0.80778828750775
 frms,max,avg= 4.1896448E-01 9.9634637E-01   0.000E+00  0.000E+00  1.391E-01 e/A
 length scales=  7.762431680422  7.762431680422  7.762431680422 bohr
              =  4.107701928516  4.107701928516  4.107701928516 angstroms
 prteigrs : about to open file Cs2TiI6o_DS1_EIG
 Fermi (or HOMO) energy (hartree) =   0.10676   Average Vxc (hartree)=  -0.29200
 Eigenvalues (hartree) for nkpt=  15  k points:
 kpt#   1, nband= 98, wtk=  0.04000, kpt=  0.0500  0.0500  0.2500 (reduced coord)
  -4.75305   -4.75304   -2.99047   -2.99027   -2.98791   -2.98776   -2.98765   -2.98726
  -1.70809   -1.70801   -1.70727   -1.70693   -1.70614   -1.70460   -1.70326   -1.70257
  -1.70240   -1.70190   -1.70134   -1.70109   -1.70004   -1.69984   -1.69877   -1.69679
  -1.69602   -1.69503   -1.69217   -1.69193   -1.68575   -1.68554   -1.68374   -1.68285
  -1.68258   -1.68157   -1.68099   -1.67945   -1.67704   -1.67700   -0.69905   -0.69859
  -0.69780   -0.69740   -0.69731   -0.69709   -0.69665   -0.69657   -0.69624   -0.69616
  -0.69605   -0.69592   -0.69584   -0.69448   -0.69437   -0.69422   -0.69346   -0.69331
  -0.69275   -0.69266   -0.45163   -0.43103   -0.42512   -0.40298   -0.39399   -0.38430
  -0.21565   -0.21471   -0.21346   -0.21337   -0.21259   -0.20067   -0.19983   -0.19839
  -0.19396   -0.19222   -0.16545   -0.15376   -0.12273   -0.11223   -0.09081   -0.07762
  -0.06152   -0.05045   -0.03749   -0.02859   -0.02840   -0.02543   -0.01274   -0.00680
   0.00059    0.00821    0.01966    0.03064    0.03811    0.04280    0.04300    0.08736
   0.12411    0.14228
 prteigrs : prtvol=0 or 1, do not print more k-points.


--- !EnergyTerms
iteration_state     : {dtset: 1, }
comment             : Components of total free energy in Hartree
kinetic             :  8.16672380344270E+02
hartree             :  1.64033550199803E+03
xc                  : -2.75549234735617E+02
Ewald energy        :  4.31740719910211E+02
psp_core            :  2.58828320250315E+01
local_psp           : -3.61234108370294E+03
non_local_psp       : -4.79549493285859E+02
VdWaals_dft_d       : -1.32216601059998E-01
total_energy        : -1.45294059404793E+03
total_energy_eV     : -3.95365242304148E+04
band_energy         : -1.95130377395567E+02
...


 Cartesian components of stress tensor (hartree/bohr^3)
  sigma(1 1)=  1.50479255E-02  sigma(3 2)=  0.00000000E+00
  sigma(2 2)=  1.50479255E-02  sigma(3 1)=  0.00000000E+00
  sigma(3 3)=  1.49087641E-02  sigma(2 1)=  0.00000000E+00

-Cartesian components of stress tensor (GPa)         [Pressure= -4.4136E+02 GPa]
- sigma(1 1)=  4.42725179E+02  sigma(3 2)=  0.00000000E+00
- sigma(2 2)=  4.42725179E+02  sigma(3 1)=  0.00000000E+00
- sigma(3 3)=  4.38630909E+02  sigma(2 1)=  0.00000000E+00

================================================================================
== DATASET  2 ==================================================================
-   mpi_nproc: 6, omp_nthreads: -1 (-1 if OMP is not activated)


--- !DatasetInfo
iteration_state: {dtset: 2, }
dimensions: {natom: 12, nkpt: 15, mband: 210, nsppol: 1, nspinor: 1, nspden: 1, mpw: 13694, }
cutoff_energies: {ecut:  22.5, pawecutdg:  -1.0, }
electrons: {nelect:   1.92000000E+02, charge:   0.00000000E+00, occopt:   1.00000000E+00, tsmear:   1.00000000E-02, }
meta: {optdriver: 0, ionmov: 0, optcell: 0, iscf: -2, paral_kgb: 0, }
...

 mkfilename : getwfk/=0, take file _WFK from output of DATASET   1.

 mkfilename : getden/=0, take file _DEN from output of DATASET   1.

 Exchange-correlation functional for the present dataset will be:
  GGA: Perdew-Burke-Ernzerhof functional - ixc=11
 Citation for XC functional:
  J.P.Perdew, K.Burke, M.Ernzerhof, PRL 77, 3865 (1996)

 Real(R)+Recip(G) space primitive vectors, cartesian coordinates (Bohr,Bohr^-1):
 R(1)=  7.7624317  0.0000000  0.0000000  G(1)=  0.1288256  0.0000000  0.0000000
 R(2)=  0.0000000  7.7624317  0.0000000  G(2)=  0.0000000  0.1288256  0.0000000
 R(3)=  0.0000000  0.0000000 44.4614870  G(3)=  0.0000000  0.0000000  0.0224914
 Unit cell volume ucvol=  2.6790423E+03 bohr^3
 Angles (23,13,12)=  9.00000000E+01  9.00000000E+01  9.00000000E+01 degrees

 getcut: wavevector=  0.0000  0.0000  0.0000  ngfft=  36  36 192
         ecut(hartree)=     22.500   => boxcut(ratio)=   2.02237
--------------------------------------------------------------------------------

-inwffil : will read wavefunctions from disk file Cs2TiI6o_DS1_WFK

================================================================================
 prteigrs : about to open file Cs2TiI6o_DS2_EIG
 Non-SCF case, kpt    1 (  0.05000  0.05000  0.25000), residuals and eigenvalues=
  1.62E-21  1.55E-21  3.12E-21  3.06E-21  2.98E-21  3.01E-21  2.97E-21  3.03E-21
  2.75E-21  3.70E-21  2.55E-21  2.16E-21  1.42E-21  2.23E-21  6.23E-22  1.89E-21
  2.26E-21  6.24E-22  2.50E-21  1.98E-21  2.60E-21  1.92E-21  2.09E-21  1.45E-21
  1.92E-21  3.39E-21  4.84E-22  5.02E-22  4.63E-21  5.28E-21  2.97E-22  3.47E-22
  4.67E-22  2.60E-22  9.81E-22  6.45E-22  4.73E-22  4.65E-21  5.17E-21  1.70E-21
  4.56E-21  4.16E-21  1.60E-21  2.16E-21  2.42E-21  2.83E-21  5.24E-21  2.07E-21
  1.27E-21  2.18E-21  6.12E-21  2.48E-21  8.15E-21  4.47E-21  1.55E-21  1.50E-21
  7.29E-21  7.31E-21  6.27E-22  1.42E-21  1.46E-21  2.33E-21  1.87E-21  1.86E-21
  3.76E-21  6.80E-21  3.31E-21  2.72E-21  4.09E-21  3.24E-21  3.64E-21  3.96E-21
  6.36E-21  5.93E-21  1.63E-21  8.77E-22  4.21E-21  2.94E-21  3.56E-21  7.98E-21
  1.35E-21  1.02E-21  1.63E-21  2.61E-21  2.18E-21  1.63E-21  4.97E-21  3.01E-21
  6.09E-21  1.84E-21  3.34E-21  7.70E-21  9.13E-21  7.78E-21  4.63E-21  7.75E-21
  4.07E-21  3.37E-21  5.36E-21  7.32E-21  8.95E-21  3.47E-21  5.56E-21  4.22E-21
  7.35E-21  5.43E-21  5.20E-21  8.88E-21  3.51E-21  4.52E-21  4.15E-21  4.77E-21
  3.08E-21  9.54E-21  3.58E-21  6.82E-21  7.48E-21  3.48E-21  3.65E-21  9.91E-21
  3.47E-21  7.13E-21  8.39E-21  2.02E-21  2.25E-21  2.87E-21  2.80E-21  2.47E-21
  9.93E-21  7.65E-21  4.16E-21  2.53E-21  3.45E-21  3.74E-21  3.72E-21  3.27E-21
  2.99E-21  4.90E-21  7.45E-21  7.57E-21  9.70E-21  2.38E-21  3.02E-21  3.80E-21
  4.45E-21  7.92E-21  2.30E-21  3.98E-21  3.93E-21  3.66E-21  3.37E-21  7.61E-21
  8.27E-21  5.20E-21  9.77E-21  4.27E-21  5.83E-21  9.32E-21  4.59E-21  6.80E-21
  4.27E-21  8.44E-21  6.26E-21  6.44E-21  4.44E-21  5.51E-21  9.42E-21  7.80E-21
  5.52E-21  6.95E-21  4.29E-21  9.32E-21  6.40E-21  3.80E-21  4.78E-21  6.09E-21
  8.21E-21  8.71E-21  8.29E-21  6.06E-21  5.41E-21  5.69E-21  6.55E-21  8.37E-21
  7.13E-21  9.00E-21  5.17E-21  7.23E-21  6.22E-21  9.11E-21  3.42E-21  8.96E-21
  5.48E-21  8.41E-21  9.60E-21  8.30E-21  8.22E-21  8.12E-21  6.30E-21  9.03E-21
  9.78E-21  9.11E-21  8.72E-21  6.84E-21  6.86E-21  8.05E-21  8.32E-21  8.35E-21
  4.73E-10  2.03E-11
 -4.7530E+00 -4.7530E+00 -2.9905E+00 -2.9903E+00 -2.9879E+00 -2.9878E+00
 -2.9877E+00 -2.9873E+00 -1.7081E+00 -1.7080E+00 -1.7073E+00 -1.7069E+00
 -1.7061E+00 -1.7046E+00 -1.7033E+00 -1.7026E+00 -1.7024E+00 -1.7019E+00
 -1.7013E+00 -1.7011E+00 -1.7000E+00 -1.6998E+00 -1.6988E+00 -1.6968E+00
 -1.6960E+00 -1.6950E+00 -1.6922E+00 -1.6919E+00 -1.6858E+00 -1.6855E+00
 -1.6837E+00 -1.6829E+00 -1.6826E+00 -1.6816E+00 -1.6810E+00 -1.6794E+00
 -1.6770E+00 -1.6770E+00 -6.9905E-01 -6.9859E-01 -6.9780E-01 -6.9740E-01
 -6.9731E-01 -6.9709E-01 -6.9665E-01 -6.9657E-01 -6.9624E-01 -6.9616E-01
 -6.9605E-01 -6.9592E-01 -6.9584E-01 -6.9448E-01 -6.9437E-01 -6.9422E-01
 -6.9346E-01 -6.9331E-01 -6.9275E-01 -6.9266E-01 -4.5163E-01 -4.3103E-01
 -4.2512E-01 -4.0298E-01 -3.9399E-01 -3.8430E-01 -2.1565E-01 -2.1471E-01
 -2.1346E-01 -2.1337E-01 -2.1259E-01 -2.0067E-01 -1.9983E-01 -1.9839E-01
 -1.9396E-01 -1.9222E-01 -1.6545E-01 -1.5376E-01 -1.2273E-01 -1.1223E-01
 -9.0807E-02 -7.7624E-02 -6.1519E-02 -5.0445E-02 -3.7485E-02 -2.8589E-02
 -2.8400E-02 -2.5428E-02 -1.2745E-02 -6.8026E-03  5.8921E-04  8.2065E-03
  1.9657E-02  3.0637E-02  3.8109E-02  4.2798E-02  4.3005E-02  8.7357E-02
  1.2411E-01  1.4228E-01  1.6257E-01  1.7918E-01  2.0688E-01  2.2293E-01
  2.3296E-01  2.4204E-01  2.4572E-01  2.5648E-01  2.5652E-01  2.6222E-01
  2.6453E-01  2.6841E-01  2.7862E-01  2.7996E-01  2.8205E-01  2.8825E-01
  3.0259E-01  3.0313E-01  3.0625E-01  3.2406E-01  3.2515E-01  3.3459E-01
  3.4209E-01  3.5303E-01  3.7949E-01  3.9817E-01  4.0147E-01  4.0638E-01
  4.2453E-01  4.2817E-01  4.3454E-01  4.3943E-01  4.5020E-01  4.5367E-01
  4.6922E-01  4.7772E-01  4.8195E-01  4.8918E-01  4.9104E-01  5.0167E-01
  5.0694E-01  5.1148E-01  5.1189E-01  5.2095E-01  5.2734E-01  5.3507E-01
  5.3973E-01  5.4278E-01  5.5468E-01  5.5666E-01  5.5861E-01  5.6687E-01
  5.7308E-01  5.7473E-01  5.8590E-01  5.9097E-01  5.9954E-01  6.0642E-01
  6.1332E-01  6.1417E-01  6.2601E-01  6.2959E-01  6.3313E-01  6.3548E-01
  6.4184E-01  6.5483E-01  6.5761E-01  6.6115E-01  6.6799E-01  6.7402E-01
  6.8460E-01  6.9722E-01  6.9799E-01  7.0444E-01  7.1045E-01  7.1658E-01
  7.1715E-01  7.2727E-01  7.4563E-01  7.5252E-01  7.5330E-01  7.6270E-01
  7.6857E-01  7.7203E-01  7.8779E-01  7.9109E-01  7.9838E-01  8.0774E-01
  8.1644E-01  8.1945E-01  8.2612E-01  8.3659E-01  8.3700E-01  8.4902E-01
  8.5249E-01  8.5491E-01  8.6542E-01  8.7395E-01  8.8102E-01  8.8796E-01
  8.9723E-01  8.9986E-01  9.0228E-01  9.0733E-01  9.1377E-01  9.1612E-01
  9.2307E-01  9.2786E-01  9.3596E-01  9.3661E-01  9.4690E-01  9.4751E-01
  prteigrs : nnsclo,ikpt=  200    1 max resid (incl. the buffer)=  4.73036E-10
 prteigrs : prtvol=0 or 1, do not print more k-points.

  prteigrs : nnsclo,ikpt=  200    2 max resid (incl. the buffer)=  9.19636E-09
  prteigrs : nnsclo,ikpt=  200    3 max resid (incl. the buffer)=  4.26654E-08
  prteigrs : nnsclo,ikpt=  200    4 max resid (incl. the buffer)=  2.88668E-12
  prteigrs : nnsclo,ikpt=  200    5 max resid (incl. the buffer)=  2.54162E-10
  prteigrs : nnsclo,ikpt=  200    6 max resid (incl. the buffer)=  8.42175E-11
  prteigrs : nnsclo,ikpt=  200    7 max resid (incl. the buffer)=  2.92783E-12
  prteigrs : nnsclo,ikpt=  200    8 max resid (incl. the buffer)=  3.05179E-13
  prteigrs : nnsclo,ikpt=  200    9 max resid (incl. the buffer)=  4.27373E-10
  prteigrs : nnsclo,ikpt=  200   10 max resid (incl. the buffer)=  4.03089E-07
  prteigrs : nnsclo,ikpt=  200   11 max resid (incl. the buffer)=  5.88687E-10
  prteigrs : nnsclo,ikpt=  200   12 max resid (incl. the buffer)=  1.03062E-13
  prteigrs : nnsclo,ikpt=  200   13 max resid (incl. the buffer)=  6.86134E-12
  prteigrs : nnsclo,ikpt=  200   14 max resid (incl. the buffer)=  1.14653E-11
  prteigrs : nnsclo,ikpt=  200   15 max resid (incl. the buffer)=  2.36747E-13


--- !ResultsGS
iteration_state: {dtset: 2, }
comment   : Summary of ground state results
lattice_vectors:
- [  7.7624317,   0.0000000,   0.0000000, ]
- [  0.0000000,   7.7624317,   0.0000000, ]
- [  0.0000000,   0.0000000,  44.4614870, ]
lattice_lengths: [   7.76243,    7.76243,   44.46149, ]
lattice_angles: [ 90.000,  90.000,  90.000, ] # degrees, (23, 13, 12)
lattice_volume:   2.6790423E+03
convergence: {deltae:  0.000E+00, res2:  0.000E+00, residm:  9.994E-21, diffor:  0.000E+00, }
etotal    :  -1.45294059E+03
entropy   :   0.00000000E+00
fermie    :   1.06764346E-01
cartesian_stress_tensor: null
pressure_GPa: null
xred      :
- [  5.0000E-01,   0.0000E+00,   1.9834E-01, Sn]
- [  0.0000E+00,   5.0000E-01,   3.1520E-01, Sn]
- [  5.0000E-01,   0.0000E+00,   4.2937E-01, Sn]
- [  0.0000E+00,   5.0000E-01,   5.4624E-01, Sn]
- [  0.0000E+00,   5.0000E-01,   1.9969E-01, Se]
- [  5.0000E-01,   0.0000E+00,   3.1385E-01, Se]
- [  0.0000E+00,   5.0000E-01,   4.3072E-01, Se]
- [  5.0000E-01,   0.0000E+00,   5.4489E-01, Se]
- [  5.0000E-01,   0.0000E+00,   6.7458E-01, Se]
- [  0.0000E+00,   5.0000E-01,   8.0166E-01, Se]
- [  5.0000E-01,   5.0000E-01,   7.3812E-01, Zn]
- [  0.0000E+00,   0.0000E+00,   7.3812E-01, Zn]
cartesian_forces: null
force_length_stats: {min: null, max: null, mean: null, }
...

 Integrated electronic density in atomic spheres:
 ------------------------------------------------
 Atom  Sphere_radius  Integrated_density
    1        2.00000         10.57104791
    2        2.00000         10.56857676
    3        2.00000         10.56242936
    4        2.00000         10.56222169
    5        2.00000         13.27998649
    6        2.00000         13.32143074
    7        2.00000         13.30382362
    8        2.00000         13.27196421
    9        2.00000         13.26876770
   10        2.00000         13.29226332
   11        2.00000         18.09936521
   12        2.00000         18.09936521
================================================================================

 ----iterations are completed or convergence reached----

 Mean square residual over all n,k,spin=   47.645E-22; max=  99.935E-22
[...]
                       0.000000  0.000000  0.000000  0.000000  0.000000  0.000000
                       0.000000  0.000000  0.000000  0.000000  0.000000  0.000000
              occ5     2.000000  2.000000  2.000000  2.000000  2.000000  2.000000
                       2.000000  2.000000  2.000000  2.000000  2.000000  2.000000
                       2.000000  2.000000  2.000000  2.000000  2.000000  2.000000
                       2.000000  2.000000  2.000000  2.000000  2.000000  2.000000
                       2.000000  2.000000  2.000000  2.000000  2.000000  2.000000
                       2.000000  2.000000  2.000000  2.000000  2.000000  2.000000
                       2.000000  2.000000  2.000000  2.000000  2.000000  2.000000
                       2.000000  2.000000  2.000000  2.000000  2.000000  2.000000
                       2.000000  2.000000  2.000000  2.000000  2.000000  2.000000
                       2.000000  2.000000  2.000000  2.000000  2.000000  2.000000
                       2.000000  2.000000  2.000000  2.000000  2.000000  2.000000
                       2.000000  2.000000  2.000000  2.000000  2.000000  2.000000
                       2.000000  2.000000  2.000000  2.000000  2.000000  2.000000
                       2.000000  2.000000  2.000000  2.000000  2.000000  2.000000
                       2.000000  2.000000  2.000000  2.000000  2.000000  2.000000
                       2.000000  2.000000  2.000000  2.000000  2.000000  2.000000
                       0.000000  0.000000  0.000000  0.000000  0.000000  0.000000
                       0.000000  0.000000  0.000000  0.000000  0.000000  0.000000
                       0.000000  0.000000  0.000000  0.000000  0.000000  0.000000
                       0.000000  0.000000  0.000000  0.000000  0.000000  0.000000
                       0.000000  0.000000  0.000000  0.000000  0.000000  0.000000
                       0.000000  0.000000  0.000000  0.000000  0.000000  0.000000
                       0.000000  0.000000  0.000000  0.000000  0.000000  0.000000
                       0.000000  0.000000  0.000000  0.000000  0.000000  0.000000
                       0.000000  0.000000  0.000000  0.000000  0.000000  0.000000
                       0.000000  0.000000  0.000000  0.000000  0.000000  0.000000
                       0.000000  0.000000  0.000000  0.000000  0.000000  0.000000
                       0.000000  0.000000  0.000000  0.000000  0.000000  0.000000
                       0.000000  0.000000  0.000000  0.000000  0.000000  0.000000
                       0.000000  0.000000  0.000000  0.000000  0.000000  0.000000
                       0.000000  0.000000  0.000000  0.000000  0.000000  0.000000
                       0.000000  0.000000  0.000000  0.000000  0.000000  0.000000
                       0.000000  0.000000  0.000000  0.000000  0.000000  0.000000
                       0.000000  0.000000  0.000000  0.000000  0.000000  0.000000
                       0.000000  0.000000  0.000000  0.000000  0.000000  0.000000
              occ6     2.000000  2.000000  2.000000  2.000000  2.000000  2.000000
                       2.000000  2.000000  2.000000  2.000000  2.000000  2.000000
                       2.000000  2.000000  2.000000  2.000000  2.000000  2.000000
                       2.000000  2.000000  2.000000  2.000000  2.000000  2.000000
                       2.000000  2.000000  2.000000  2.000000  2.000000  2.000000
                       2.000000  2.000000  2.000000  2.000000  2.000000  2.000000
                       2.000000  2.000000  2.000000  2.000000  2.000000  2.000000
                       2.000000  2.000000  2.000000  2.000000  2.000000  2.000000
                       2.000000  2.000000  2.000000  2.000000  2.000000  2.000000
                       2.000000  2.000000  2.000000  2.000000  2.000000  2.000000
                       2.000000  2.000000  2.000000  2.000000  2.000000  2.000000
                       2.000000  2.000000  2.000000  2.000000  2.000000  2.000000
                       2.000000  2.000000  2.000000  2.000000  2.000000  2.000000
                       2.000000  2.000000  2.000000  2.000000  2.000000  2.000000
                       2.000000  2.000000  2.000000  2.000000  2.000000  2.000000
                       2.000000  2.000000  2.000000  2.000000  2.000000  2.000000
                       0.000000  0.000000  0.000000  0.000000  0.000000  0.000000
                       0.000000  0.000000  0.000000  0.000000  0.000000  0.000000
                       0.000000  0.000000  0.000000  0.000000  0.000000  0.000000
                       0.000000  0.000000  0.000000  0.000000  0.000000  0.000000
                       0.000000  0.000000  0.000000  0.000000  0.000000  0.000000
                       0.000000  0.000000  0.000000  0.000000  0.000000  0.000000
                       0.000000  0.000000  0.000000  0.000000  0.000000  0.000000
                       0.000000  0.000000  0.000000  0.000000  0.000000  0.000000
                       0.000000  0.000000  0.000000  0.000000  0.000000  0.000000
                       0.000000  0.000000  0.000000  0.000000  0.000000  0.000000
                       0.000000  0.000000  0.000000  0.000000  0.000000  0.000000
                       0.000000  0.000000  0.000000  0.000000  0.000000  0.000000
                       0.000000  0.000000  0.000000  0.000000  0.000000  0.000000
                       0.000000  0.000000  0.000000  0.000000  0.000000  0.000000
                       0.000000  0.000000  0.000000  0.000000  0.000000  0.000000
                       0.000000  0.000000  0.000000  0.000000  0.000000  0.000000
                       0.000000  0.000000  0.000000  0.000000  0.000000  0.000000
                       0.000000  0.000000  0.000000  0.000000  0.000000  0.000000
                       0.000000  0.000000  0.000000  0.000000  0.000000  0.000000
        optdriver1          0
        optdriver2          0
        optdriver3          0
        optdriver4          1
        optdriver5          1
        optdriver6          1
            prtwf1          1
            prtwf2          1
            prtwf3          1
            prtwf4          3
            prtwf5          3
            prtwf6          3
            rfdir1          0       0       0
            rfdir2          0       0       0
            rfdir3          0       0       0
            rfdir4          1       0       0
            rfdir5          0       1       0
            rfdir6          0       0       1
           rfelfd1          0
           rfelfd2          0
           rfelfd3          0
           rfelfd4          2
           rfelfd5          2
           rfelfd6          2
            rprim      1.0000000000E+00  0.0000000000E+00  0.0000000000E+00
                       0.0000000000E+00  1.0000000000E+00  0.0000000000E+00
                       0.0000000000E+00  0.0000000000E+00  5.7277782079E+00
           shiftk      5.00000000E-01  5.00000000E-01  5.00000000E-01
          spgroup          99
           strten1     1.5047925504E-02  1.5047925504E-02  1.4908764079E-02
                       0.0000000000E+00  0.0000000000E+00  0.0000000000E+00
           symrel      1  0  0   0  1  0   0  0  1       1  0  0   0 -1  0   0  0  1
                      -1  0  0   0 -1  0   0  0  1      -1  0  0   0  1  0   0  0  1
                       0  1  0   1  0  0   0  0  1       0  1  0  -1  0  0   0  0  1
                       0 -1  0  -1  0  0   0  0  1       0 -1  0   1  0  0   0  0  1
            tnons      0.0000000  0.0000000  0.0000000     0.0000000  0.0000000  0.0000000
                       0.0000000  0.0000000  0.0000000     0.0000000  0.0000000  0.0000000
                       0.5000000  0.5000000  0.0000000     0.5000000  0.5000000  0.0000000
                       0.5000000  0.5000000  0.0000000     0.5000000  0.5000000  0.0000000
           tolwfr      1.00000000E-20
            typat      1  1  1  1  2  2  2  2  2  2  3  3
           vdw_xc           5
              wtk1       0.04000    0.08000    0.08000    0.08000    0.08000    0.04000
                         0.08000    0.08000    0.08000    0.04000    0.08000    0.08000
                         0.04000    0.08000    0.04000
              wtk2       0.04000    0.08000    0.08000    0.08000    0.08000    0.04000
                         0.08000    0.08000    0.08000    0.04000    0.08000    0.08000
                         0.04000    0.08000    0.04000
              wtk3       0.01000    0.01000    0.01000    0.01000    0.01000    0.01000
                         0.01000    0.01000    0.01000    0.01000    0.01000    0.01000
                         0.01000    0.01000    0.01000    0.01000    0.01000    0.01000
                         0.01000    0.01000    0.01000    0.01000    0.01000    0.01000
                         0.01000    0.01000    0.01000    0.01000    0.01000    0.01000
                         0.01000    0.01000    0.01000    0.01000    0.01000    0.01000
                         0.01000    0.01000    0.01000    0.01000    0.01000    0.01000
                         0.01000    0.01000    0.01000    0.01000    0.01000    0.01000
                         0.01000    0.01000
              wtk4       0.01000    0.01000    0.01000    0.01000    0.01000    0.01000
                         0.01000    0.01000    0.01000    0.01000    0.01000    0.01000
                         0.01000    0.01000    0.01000    0.01000    0.01000    0.01000
                         0.01000    0.01000    0.01000    0.01000    0.01000    0.01000
                         0.01000    0.01000    0.01000    0.01000    0.01000    0.01000
                         0.01000    0.01000    0.01000    0.01000    0.01000    0.01000
                         0.01000    0.01000    0.01000    0.01000    0.01000    0.01000
                         0.01000    0.01000    0.01000    0.01000    0.01000    0.01000
                         0.01000    0.01000
              wtk5       0.01000    0.01000    0.01000    0.01000    0.01000    0.01000
                         0.01000    0.01000    0.01000    0.01000    0.01000    0.01000
                         0.01000    0.01000    0.01000    0.01000    0.01000    0.01000
                         0.01000    0.01000    0.01000    0.01000    0.01000    0.01000
                         0.01000    0.01000    0.01000    0.01000    0.01000    0.01000
                         0.01000    0.01000    0.01000    0.01000    0.01000    0.01000
                         0.01000    0.01000    0.01000    0.01000    0.01000    0.01000
                         0.01000    0.01000    0.01000    0.01000    0.01000    0.01000
                         0.01000    0.01000
              wtk6       0.01000    0.01000    0.01000    0.01000    0.01000    0.01000
                         0.01000    0.01000    0.01000    0.01000    0.01000    0.01000
                         0.01000    0.01000    0.01000    0.01000    0.01000    0.01000
                         0.01000    0.01000    0.01000    0.01000    0.01000    0.01000
                         0.01000    0.01000    0.01000    0.01000    0.01000    0.01000
                         0.01000    0.01000    0.01000    0.01000    0.01000    0.01000
                         0.01000    0.01000    0.01000    0.01000    0.01000    0.01000
                         0.01000    0.01000    0.01000    0.01000    0.01000    0.01000
                         0.01000    0.01000
                       outvars : Printing only first  50 k-points.
           xangst      2.0538509643E+00  0.0000000000E+00  4.6664740448E+00
                       0.0000000000E+00  2.0538509643E+00  7.4160979462E+00
                       2.0538509643E+00  0.0000000000E+00  1.0102196232E+01
                       0.0000000000E+00  2.0538509643E+00  1.2851820134E+01
                       0.0000000000E+00  2.0538509643E+00  4.6982368524E+00
                       2.0538509643E+00  0.0000000000E+00  7.3843351386E+00
                       0.0000000000E+00  2.0538509643E+00  1.0133959040E+01
                       2.0538509643E+00  0.0000000000E+00  1.2820057326E+01
                       2.0538509643E+00  0.0000000000E+00  1.5871522011E+01
                       0.0000000000E+00  2.0538509643E+00  1.8861531546E+01
                       2.0538509643E+00  2.0538509643E+00  1.7366538543E+01
                       0.0000000000E+00  0.0000000000E+00  1.7366538543E+01
            xcart      3.8812158402E+00  0.0000000000E+00  8.8183579509E+00
                       0.0000000000E+00  3.8812158402E+00  1.4014394093E+01
                       3.8812158402E+00  0.0000000000E+00  1.9090384220E+01
                       0.0000000000E+00  3.8812158402E+00  2.4286420362E+01
                       0.0000000000E+00  3.8812158402E+00  8.8783809584E+00
                       3.8812158402E+00  0.0000000000E+00  1.3954371085E+01
                       0.0000000000E+00  3.8812158402E+00  1.9150407227E+01
                       3.8812158402E+00  0.0000000000E+00  2.4226397354E+01
                       3.8812158402E+00  0.0000000000E+00  2.9992829913E+01
                       0.0000000000E+00  3.8812158402E+00  3.5643129068E+01
                       3.8812158402E+00  3.8812158402E+00  3.2818001722E+01
                       0.0000000000E+00  0.0000000000E+00  3.2818001722E+01
             xred      5.0000000000E-01  0.0000000000E+00  1.9833700000E-01
                       0.0000000000E+00  5.0000000000E-01  3.1520300000E-01
                       5.0000000000E-01  0.0000000000E+00  4.2936900000E-01
                       0.0000000000E+00  5.0000000000E-01  5.4623500000E-01
                       0.0000000000E+00  5.0000000000E-01  1.9968700000E-01
                       5.0000000000E-01  0.0000000000E+00  3.1385300000E-01
                       0.0000000000E+00  5.0000000000E-01  4.3071900000E-01
                       5.0000000000E-01  0.0000000000E+00  5.4488500000E-01
                       5.0000000000E-01  0.0000000000E+00  6.7458000000E-01
                       0.0000000000E+00  5.0000000000E-01  8.0166300000E-01
                       5.0000000000E-01  5.0000000000E-01  7.3812200000E-01
                       0.0000000000E+00  0.0000000000E+00  7.3812200000E-01
            znucl       50.00000   34.00000   30.00000

================================================================================


- Timing analysis has been suppressed with timopt=0



================================================================================

 Suggested references for the acknowledgment of ABINIT usage.

 The users of ABINIT have little formal obligations with respect to the ABINIT group
 (those specified in the GNU General Public License, http://www.gnu.org/copyleft/gpl.txt).
 However, it is common practice in the scientific literature,
 to acknowledge the efforts of people that have made the research possible.
 In this spirit, please find below suggested citations of work written by ABINIT developers,
 corresponding to implementations inside of ABINIT that you have used in the present run.
 Note also that it will be of great value to readers of publications presenting these results,
 to read papers enabling them to understand the theoretical formalism and details
 of the ABINIT implementation.
 For information on why they are suggested, see also https://docs.abinit.org/theory/acknowledgments.
-
- [1] The Abinit project: Impact, environment and recent developments.
- Computer Phys. Comm. 248, 107042 (2020).
- X.Gonze, B. Amadon, G. Antonius, F.Arnardi, L.Baguet, J.-M.Beuken,
- J.Bieder, F.Bottin, J.Bouchet, E.Bousquet, N.Brouwer, F.Bruneval,
- G.Brunin, T.Cavignac, J.-B. Charraud, Wei Chen, M.Cote, S.Cottenier,
- J.Denier, G.Geneste, Ph.Ghosez, M.Giantomassi, Y.Gillet, O.Gingras,
- D.R.Hamann, G.Hautier, Xu He, N.Helbig, N.Holzwarth, Y.Jia, F.Jollet,
- W.Lafargue-Dit-Hauret, K.Lejaeghere, M.A.L.Marques, A.Martin, C.Martins,
- H.P.C. Miranda, F.Naccarato, K. Persson, G.Petretto, V.Planes, Y.Pouillon,
- S.Prokhorenko, F.Ricci, G.-M.Rignanese, A.H.Romero, M.M.Schmitt, M.Torrent,
- M.J.van Setten, B.Van Troeye, M.J.Verstraete, G.Zerah and J.W.Zwanzig
- Comment: the fifth generic paper describing the ABINIT project.
- Note that a version of this paper, that is not formatted for Computer Phys. Comm. 
- is available at https://www.abinit.org/sites/default/files/ABINIT20.pdf .
- The licence allows the authors to put it on the Web.
- DOI and bibtex: see https://docs.abinit.org/theory/bibliography/#gonze2020
-
- [2] First-principles responses of solids to atomic displacements and homogeneous electric fields:,
- implementation of a conjugate-gradient algorithm. X. Gonze, Phys. Rev. B55, 10337 (1997).
- Comment: Non-vanishing rfphon and/or rfelfd, in the norm-conserving case.
- DOI and bibtex: see https://docs.abinit.org/theory/bibliography/#gonze1997
-
- [3] Dynamical matrices, Born effective charges, dielectric permittivity tensors, and ,
- interatomic force constants from density-functional perturbation theory,
- X. Gonze and C. Lee, Phys. Rev. B55, 10355 (1997).
- Comment: Non-vanishing rfphon and/or rfelfd, in the norm-conserving case.
- DOI and bibtex: see https://docs.abinit.org/theory/bibliography/#gonze1997a
-
- [4] Optimized norm-conserving Vanderbilt pseudopotentials.
- D.R. Hamann, Phys. Rev. B 88, 085117 (2013).
- Comment: Some pseudopotential generated using the ONCVPSP code were used.
- DOI and bibtex: see https://docs.abinit.org/theory/bibliography/#hamann2013
-
- [5] ABINIT: Overview, and focus on selected capabilities
- J. Chem. Phys. 152, 124102 (2020).
- A. Romero, D.C. Allan, B. Amadon, G. Antonius, T. Applencourt, L.Baguet,
- J.Bieder, F.Bottin, J.Bouchet, E.Bousquet, F.Bruneval,
- G.Brunin, D.Caliste, M.Cote,
- J.Denier, C. Dreyer, Ph.Ghosez, M.Giantomassi, Y.Gillet, O.Gingras,
- D.R.Hamann, G.Hautier, F.Jollet, G. Jomard,
- A.Martin, 
- H.P.C. Miranda, F.Naccarato, G.Petretto, N.A. Pike, V.Planes,
- S.Prokhorenko, T. Rangel, F.Ricci, G.-M.Rignanese, M.Royo, M.Stengel, M.Torrent,
- M.J.van Setten, B.Van Troeye, M.J.Verstraete, J.Wiktor, J.W.Zwanziger, and X.Gonze.
- Comment: a global overview of ABINIT, with focus on selected capabilities .
- Note that a version of this paper, that is not formatted for J. Chem. Phys 
- is available at https://www.abinit.org/sites/default/files/ABINIT20_JPC.pdf .
- The licence allows the authors to put it on the Web.
- DOI and bibtex: see https://docs.abinit.org/theory/bibliography/#romero2020
-
- [6] Recent developments in the ABINIT software package.
- Computer Phys. Comm. 205, 106 (2016).
- X.Gonze, F.Jollet, F.Abreu Araujo, D.Adams, B.Amadon, T.Applencourt,
- C.Audouze, J.-M.Beuken, J.Bieder, A.Bokhanchuk, E.Bousquet, F.Bruneval
- D.Caliste, M.Cote, F.Dahm, F.Da Pieve, M.Delaveau, M.Di Gennaro,
- B.Dorado, C.Espejo, G.Geneste, L.Genovese, A.Gerossier, M.Giantomassi,
- Y.Gillet, D.R.Hamann, L.He, G.Jomard, J.Laflamme Janssen, S.Le Roux,
- A.Levitt, A.Lherbier, F.Liu, I.Lukacevic, A.Martin, C.Martins,
- M.J.T.Oliveira, S.Ponce, Y.Pouillon, T.Rangel, G.-M.Rignanese,
- A.H.Romero, B.Rousseau, O.Rubel, A.A.Shukri, M.Stankovski, M.Torrent,
- M.J.Van Setten, B.Van Troeye, M.J.Verstraete, D.Waroquier, J.Wiktor,
- B.Xu, A.Zhou, J.W.Zwanziger.
- Comment: the fourth generic paper describing the ABINIT project.
- Note that a version of this paper, that is not formatted for Computer Phys. Comm. 
- is available at https://www.abinit.org/sites/default/files/ABINIT16.pdf .
- The licence allows the authors to put it on the Web.
- DOI and bibtex: see https://docs.abinit.org/theory/bibliography/#gonze2016
-
- Proc.   0 individual time (sec): cpu=       8219.5  wall=       8229.3

================================================================================

 Calculation completed.
.Delivered   6 WARNINGs and   0 COMMENTs to log file.
+Overall time at end (sec) : cpu=      49318.0  wall=      49375.3
