  ABINIT 9.2.2
  
 DeprecationWarning: 

     The files file has been deprecated in Abinit9 and will be removed in Abinit10.
     Use the syntax `abinit t01.abi` where t01.abi is an input with pseudopotenials.

            pseudos = "al.psp8, as.psp8"


  Give name for formatted input file: 
Cs2TiI6.in
  Give name for formatted output file:
Cs2TiI6.out
  Give root name for generic input files:
Cs2TiI6i
  Give root name for generic output files:
Cs2TiI6o
  Give root name for generic temporary files:
Cs2TiI6

.Version 9.2.2 of ABINIT 
.(MPI version, prepared for a x86_64_linux_gnu9.3 computer) 

.Copyright (C) 1998-2020 ABINIT group . 
 ABINIT comes with ABSOLUTELY NO WARRANTY.
 It is free software, and you are welcome to redistribute it
 under certain conditions (GNU General Public License,
 see ~abinit/COPYING or http://www.gnu.org/copyleft/gpl.txt).

 ABINIT is a project of the Universite Catholique de Louvain,
 Corning Inc. and other collaborators, see ~abinit/doc/developers/contributors.txt .
 Please read https://docs.abinit.org/theory/acknowledgments for suggested
 acknowledgments of the ABINIT effort.
 For more information, see https://www.abinit.org .

.Starting date : Sun 17 Mar 2024.
- ( at 00h10 )
  
- The starting date is more than 3 years after the initial release
- of this version of ABINIT, namely Nov 2020.
- This version of ABINIT is not supported anymore.
- Action: please, switch to a more recent version of ABINIT.

 ++++++++++++++++++++++++++++++++++++++++++++++++++++++++++++++++++++++++++++++

 === Build Information === 
  Version       : 9.2.2
  Build target  : x86_64_linux_gnu9.3
  Build date    : 20210501

 === Compiler Suite === 
  C compiler       : gnu9.3
  C++ compiler     : generic0.0
  Fortran compiler : gnu9.3
  CFLAGS           : -g -O2 -mtune=native -march=native
  CXXFLAGS         : 
  FCFLAGS          : -g -ffree-line-length-none
  FC_LDFLAGS       : 

 === Optimizations === 
  Debug level        : basic
  Optimization level : standard
  Architecture       : unknown_unknown

 === Multicore === 
  Parallel build : yes
  Parallel I/O   : yes
  openMP support : 
  GPU support    : 

 === Connectors / Fallbacks === 
  LINALG flavor  : netlib
  FFT flavor     : goedecker
  HDF5           : yes
  NetCDF         : yes
  NetCDF Fortran : yes
  LibXC          : yes
  Wannier90      : no

 === Experimental features === 
  Exports             : 
  GW double-precision : 

 ++++++++++++++++++++++++++++++++++++++++++++++++++++++++++++++++++++++++++++++


 ++++++++++++++++++++++++++++++++++++++++++++++++++++++++++++++++++++++++++++++
 Default optimizations:
   -O2 -mtune=native -march=native


 Optimizations for 43_ptgroups:
   -O0


 ++++++++++++++++++++++++++++++++++++++++++++++++++++++++++++++++++++++++++++++


 ++++++++++++++++++++++++++++++++++++++++++++++++++++++++++++++++++++++++++++++
 CPP options activated during the build:

                    CC_GNU                    FC_GNU HAVE_FC_ALLOCATABLE_DT...
 
             HAVE_FC_ASYNC         HAVE_FC_BACKTRACE  HAVE_FC_COMMAND_ARGUMENT
 
      HAVE_FC_COMMAND_LINE        HAVE_FC_CONTIGUOUS           HAVE_FC_CPUTIME
 
              HAVE_FC_EXIT             HAVE_FC_FLUSH             HAVE_FC_GAMMA
 
            HAVE_FC_GETENV   HAVE_FC_IEEE_ARITHMETIC   HAVE_FC_IEEE_EXCEPTIONS
 
          HAVE_FC_INT_QUAD             HAVE_FC_IOMSG     HAVE_FC_ISO_C_BINDING
 
  HAVE_FC_ISO_FORTRAN_2008        HAVE_FC_LONG_LINES        HAVE_FC_MOVE_ALLOC
 
  HAVE_FC_ON_THE_FLY_SHAPE           HAVE_FC_PRIVATE         HAVE_FC_PROTECTED
 
           HAVE_FC_SHIFTLR         HAVE_FC_STREAM_IO            HAVE_FC_SYSTEM
 
          HAVE_FORTRAN2003                 HAVE_HDF5        HAVE_LIBPAW_ABINIT
 
      HAVE_LIBTETRA_ABINIT                HAVE_LIBXC                  HAVE_MPI
 
                 HAVE_MPI2       HAVE_MPI_IALLGATHER       HAVE_MPI_IALLREDUCE
 
        HAVE_MPI_IALLTOALL       HAVE_MPI_IALLTOALLV           HAVE_MPI_IBCAST
 
         HAVE_MPI_IGATHERV        HAVE_MPI_INTEGER16               HAVE_MPI_IO
 
 HAVE_MPI_TYPE_CREATE_S...               HAVE_NETCDF       HAVE_NETCDF_FORTRAN
 
             HAVE_OS_LINUX         HAVE_TIMER_ABINIT                            
 ++++++++++++++++++++++++++++++++++++++++++++++++++++++++++++++++++++++++++++++

- input  file    -> Cs2TiI6.in
- output file    -> Cs2TiI6.out
- root for input  files -> Cs2TiI6i
- root for output files -> Cs2TiI6o

-instrng: 93 lines of input have been read from file Cs2TiI6.in


 Please give name of formatted atomic psp file (and finish with a newline character)
 For atom type 1, psp file is ../../../Psps_for_tests/ATOMICDATA_NC/Sn.psp8

 Please give name of formatted atomic psp file (and finish with a newline character)
 For atom type 2, psp file is ../../../Psps_for_tests/ATOMICDATA_NC/Se.psp8

 Please give name of formatted atomic psp file (and finish with a newline character)
 For atom type 3, psp file is ../../../Psps_for_tests/ATOMICDATA_NC/Zn.psp8
  read the values zionpsp= 14.0 , pspcod=   8 , lmax=   2
  read the values zionpsp= 16.0 , pspcod=   8 , lmax=   2
  read the values zionpsp= 20.0 , pspcod=   8 , lmax=   2

 inpspheads: deduce mpsang = 3, n1xccc = 2501.

======================================================= 
 invars1m : enter jdtset= 1

 symlatt: the Bravais lattice is tP (primitive tetragonal)
  xred   is defined in input file
 ingeo: takes atomic coordinates from input array xred

--- !WARNING
src_file: m_ingeo.F90
src_line: 887
message: |
    The tolerance on symmetries =   1.000E-05 is bigger than 1.0e-8.
    In order to avoid spurious effects, the atomic coordinates have been
    symmetrized before storing them in the dataset internal variable.
    So, do not be surprised by the fact that your input variables (xcart, xred, ...)
    do not correspond to the ones echoed by ABINIT, the latter being used to do the calculations.
    In order to avoid this symmetrization (e.g. for specific debugging/development), decrease tolsym to 1.0e-8 or lower.
...


 symlatt: the Bravais lattice is tP (primitive tetragonal)

 symlatt: the Bravais lattice is tP (primitive tetragonal)
 symspgr: spgroup=  99  P4 m m   (=C4v^1)
 symspgr: optical characteristics = uniaxial
 Optical axis (in reduced coordinates, real space ) :   0   0   1

======================================================= 
 invars1m : enter jdtset= 2

 symlatt: the Bravais lattice is tP (primitive tetragonal)
  xred   is defined in input file
 ingeo: takes atomic coordinates from input array xred

--- !WARNING
src_file: m_ingeo.F90
src_line: 887
message: |
    The tolerance on symmetries =   1.000E-05 is bigger than 1.0e-8.
    In order to avoid spurious effects, the atomic coordinates have been
    symmetrized before storing them in the dataset internal variable.
    So, do not be surprised by the fact that your input variables (xcart, xred, ...)
    do not correspond to the ones echoed by ABINIT, the latter being used to do the calculations.
    In order to avoid this symmetrization (e.g. for specific debugging/development), decrease tolsym to 1.0e-8 or lower.
...


 symlatt: the Bravais lattice is tP (primitive tetragonal)

 symlatt: the Bravais lattice is tP (primitive tetragonal)
 symspgr: spgroup=  99  P4 m m   (=C4v^1)
 symspgr: optical characteristics = uniaxial
 Optical axis (in reduced coordinates, real space ) :   0   0   1

======================================================= 
 invars1m : enter jdtset= 3

 symlatt: the Bravais lattice is tP (primitive tetragonal)
  xred   is defined in input file
 ingeo: takes atomic coordinates from input array xred

--- !WARNING
src_file: m_ingeo.F90
src_line: 887
message: |
    The tolerance on symmetries =   1.000E-05 is bigger than 1.0e-8.
    In order to avoid spurious effects, the atomic coordinates have been
    symmetrized before storing them in the dataset internal variable.
    So, do not be surprised by the fact that your input variables (xcart, xred, ...)
    do not correspond to the ones echoed by ABINIT, the latter being used to do the calculations.
    In order to avoid this symmetrization (e.g. for specific debugging/development), decrease tolsym to 1.0e-8 or lower.
...


 symlatt: the Bravais lattice is tP (primitive tetragonal)

 symlatt: the Bravais lattice is tP (primitive tetragonal)
 symspgr: spgroup=  99  P4 m m   (=C4v^1)
 symspgr: optical characteristics = uniaxial
 Optical axis (in reduced coordinates, real space ) :   0   0   1

======================================================= 
 invars1m : enter jdtset= 4

 symlatt: the Bravais lattice is tP (primitive tetragonal)
  xred   is defined in input file
 ingeo: takes atomic coordinates from input array xred

--- !WARNING
src_file: m_ingeo.F90
src_line: 887
message: |
    The tolerance on symmetries =   1.000E-05 is bigger than 1.0e-8.
    In order to avoid spurious effects, the atomic coordinates have been
    symmetrized before storing them in the dataset internal variable.
    So, do not be surprised by the fact that your input variables (xcart, xred, ...)
    do not correspond to the ones echoed by ABINIT, the latter being used to do the calculations.
    In order to avoid this symmetrization (e.g. for specific debugging/development), decrease tolsym to 1.0e-8 or lower.
...


 symlatt: the Bravais lattice is tP (primitive tetragonal)

 symlatt: the Bravais lattice is tP (primitive tetragonal)
 symspgr: spgroup=  99  P4 m m   (=C4v^1)
 symspgr: optical characteristics = uniaxial
 Optical axis (in reduced coordinates, real space ) :   0   0   1

======================================================= 
 invars1m : enter jdtset= 5

 symlatt: the Bravais lattice is tP (primitive tetragonal)
  xred   is defined in input file
 ingeo: takes atomic coordinates from input array xred

--- !WARNING
src_file: m_ingeo.F90
src_line: 887
message: |
    The tolerance on symmetries =   1.000E-05 is bigger than 1.0e-8.
    In order to avoid spurious effects, the atomic coordinates have been
    symmetrized before storing them in the dataset internal variable.
    So, do not be surprised by the fact that your input variables (xcart, xred, ...)
    do not correspond to the ones echoed by ABINIT, the latter being used to do the calculations.
    In order to avoid this symmetrization (e.g. for specific debugging/development), decrease tolsym to 1.0e-8 or lower.
...


 symlatt: the Bravais lattice is tP (primitive tetragonal)

 symlatt: the Bravais lattice is tP (primitive tetragonal)
 symspgr: spgroup=  99  P4 m m   (=C4v^1)
 symspgr: optical characteristics = uniaxial
 Optical axis (in reduced coordinates, real space ) :   0   0   1

======================================================= 
 invars1m : enter jdtset= 6

 symlatt: the Bravais lattice is tP (primitive tetragonal)
  xred   is defined in input file
 ingeo: takes atomic coordinates from input array xred

--- !WARNING
src_file: m_ingeo.F90
src_line: 887
message: |
    The tolerance on symmetries =   1.000E-05 is bigger than 1.0e-8.
    In order to avoid spurious effects, the atomic coordinates have been
    symmetrized before storing them in the dataset internal variable.
    So, do not be surprised by the fact that your input variables (xcart, xred, ...)
    do not correspond to the ones echoed by ABINIT, the latter being used to do the calculations.
    In order to avoid this symmetrization (e.g. for specific debugging/development), decrease tolsym to 1.0e-8 or lower.
...


 symlatt: the Bravais lattice is tP (primitive tetragonal)

 symlatt: the Bravais lattice is tP (primitive tetragonal)
 symspgr: spgroup=  99  P4 m m   (=C4v^1)
 symspgr: optical characteristics = uniaxial
 Optical axis (in reduced coordinates, real space ) :   0   0   1

--- !WARNING
src_file: m_mpinfo.F90
src_line: 2281
message: |
    nkpt*nsppol (15) is not a multiple of nproc_kpt (6)
    The k-point parallelisation is inefficient. (Ignore this warning if this is not a GS run)
...

 For input ecut=  2.250000E+01 best grid ngfft=      36      36     192
       max ecut=  2.300617E+01

 ==== FFT mesh ====
  FFT mesh divisions ........................    36   36  192
  Augmented FFT divisions ...................    37   37  192
  FFT algorithm .............................   112
  FFT cache size ............................    16
 getmpw: optimal value of mpw= 13694

--- !WARNING
src_file: m_mpinfo.F90
src_line: 2281
message: |
    nkpt*nsppol (15) is not a multiple of nproc_kpt (6)
    The k-point parallelisation is inefficient. (Ignore this warning if this is not a GS run)
...

 For input ecut=  2.250000E+01 best grid ngfft=      36      36     192
       max ecut=  2.300617E+01

 ==== FFT mesh ====
  FFT mesh divisions ........................    36   36  192
  Augmented FFT divisions ...................    37   37  192
  FFT algorithm .............................   112
  FFT cache size ............................    16
 getmpw: optimal value of mpw= 13694

--- !WARNING
src_file: m_mpinfo.F90
src_line: 2281
message: |
    nkpt*nsppol (100) is not a multiple of nproc_kpt (6)
    The k-point parallelisation is inefficient. (Ignore this warning if this is not a GS run)
...

 For input ecut=  2.250000E+01 best grid ngfft=      36      36     192
       max ecut=  2.300617E+01

 ==== FFT mesh ====
  FFT mesh divisions ........................    36   36  192
  Augmented FFT divisions ...................    37   37  192
  FFT algorithm .............................   112
  FFT cache size ............................    16
 getmpw: optimal value of mpw= 13694
 For input ecut=  2.250000E+01 best grid ngfft=      36      36     192
       max ecut=  2.300617E+01

 ==== FFT mesh ====
  FFT mesh divisions ........................    36   36  192
  Augmented FFT divisions ...................    37   37  192
  FFT algorithm .............................   112
  FFT cache size ............................    16
 getmpw: optimal value of mpw= 13694
 getmpw: optimal value of mpw= 13694
 For input ecut=  2.250000E+01 best grid ngfft=      36      36     192
       max ecut=  2.300617E+01

 ==== FFT mesh ====
  FFT mesh divisions ........................    36   36  192
  Augmented FFT divisions ...................    37   37  192
  FFT algorithm .............................   112
  FFT cache size ............................    16
 getmpw: optimal value of mpw= 13694
 getmpw: optimal value of mpw= 13694
 For input ecut=  2.250000E+01 best grid ngfft=      36      36     192
       max ecut=  2.300617E+01

 ==== FFT mesh ====
  FFT mesh divisions ........................    36   36  192
  Augmented FFT divisions ...................    37   37  192
  FFT algorithm .............................   112
  FFT cache size ............................    16
 getmpw: optimal value of mpw= 13694
 getmpw: optimal value of mpw= 13694

 DATASET    1 : space group P4 m m (# 99); Bravais tP (primitive tetrag.)

 getdim_nloc : deduce lmnmax  =  18, lnmax  =   6,
                      lmnmaxso=  18, lnmaxso=   6.
memory: analysis of memory needs
================================================================================
 Values of the parameters that define the memory need for DATASET  1.
     intxc =       0    ionmov =       0      iscf =       7    lmnmax =       6
     lnmax =       6     mgfft =     192  mpssoang =       3    mqgrid =    9494
     natom =      12  nloc_mem =       1    nspden =       1   nspinor =       1
    nsppol =       1      nsym =       8    n1xccc =    2501    ntypat =       3
    occopt =       1   xclevel =       2
-    mband =          98        mffmem =           1         mkmem =           3
       mpw =       13694          nfft =      248832          nkpt =          15
================================================================================
P This job should need less than                     145.924 Mbytes of memory.
  Rough estimation (10% accuracy) of disk space for files :
_ WF disk file :    307.164 Mbytes ; DEN or POT disk file :      1.900 Mbytes.
================================================================================

 Biggest array : cg(disk), with     61.4344 MBytes.
 memana : allocated an array of     61.434 Mbytes, for testing purposes.
 memana: allocated     145.924Mbytes, for testing purposes. 
 The job will continue.

 DATASET    2 : space group P4 m m (# 99); Bravais tP (primitive tetrag.)

 getdim_nloc : deduce lmnmax  =  18, lnmax  =   6,
                      lmnmaxso=  18, lnmaxso=   6.
memory: analysis of memory needs
================================================================================
 Values of the parameters that define the memory need for DATASET  2.
     intxc =       0    ionmov =       0      iscf =      -2    lmnmax =       6
     lnmax =       6     mgfft =     192  mpssoang =       3    mqgrid =    9494
     natom =      12  nloc_mem =       1    nspden =       1   nspinor =       1
    nsppol =       1      nsym =       8    n1xccc =    2501    ntypat =       3
    occopt =       1   xclevel =       2
-    mband =         210        mffmem =           1         mkmem =           3
       mpw =       13694          nfft =      248832          nkpt =          15
================================================================================
P This job should need less than                     183.897 Mbytes of memory.
  Rough estimation (10% accuracy) of disk space for files :
_ WF disk file :    658.207 Mbytes ; DEN or POT disk file :      1.900 Mbytes.
================================================================================

 Biggest array : cg(disk), with    131.6429 MBytes.
 memana : allocated an array of    131.643 Mbytes, for testing purposes.
 memana: allocated     183.897Mbytes, for testing purposes. 
 The job will continue.

 DATASET    3 : space group P4 m m (# 99); Bravais tP (primitive tetrag.)

 getdim_nloc : deduce lmnmax  =  18, lnmax  =   6,
                      lmnmaxso=  18, lnmaxso=   6.
memory: analysis of memory needs
================================================================================
 Values of the parameters that define the memory need for DATASET  3.
     intxc =       0    ionmov =       0      iscf =      -2    lmnmax =       6
     lnmax =       6     mgfft =     192  mpssoang =       3    mqgrid =    9494
     natom =      12  nloc_mem =       1    nspden =       1   nspinor =       1
    nsppol =       1      nsym =       8    n1xccc =    2501    ntypat =       3
    occopt =       1   xclevel =       2
-    mband =         210        mffmem =           1         mkmem =          17
       mpw =       13694          nfft =      248832          nkpt =         100
================================================================================
P This job should need less than                     806.906 Mbytes of memory.
  Rough estimation (10% accuracy) of disk space for files :
_ WF disk file :   4388.033 Mbytes ; DEN or POT disk file :      1.900 Mbytes.
================================================================================

 Biggest array : cg(disk), with    745.9673 MBytes.
 memana : allocated an array of    745.967 Mbytes, for testing purposes.
 memana: allocated     806.906Mbytes, for testing purposes. 
 The job will continue.

 DATASET    4 : space group P4 m m (# 99); Bravais tP (primitive tetrag.)

 getdim_nloc : deduce lmnmax  =  18, lnmax  =   6,
                      lmnmaxso=  18, lnmaxso=   6.
 memorf : analysis of memory needs
================================================================================
 Values of the parameters that define the memory need for DATASET  4 (RF).
     intxc =       0      iscf =      -3    lmnmax =       6     lnmax =       6
     mgfft =     192  mpssoang =       3    mqgrid =    9494     natom =      12
  nloc_mem =       1    nspden =       1   nspinor =       1    nsppol =       1
      nsym =       8    n1xccc =    2501    ntypat =       3    occopt =       1
   xclevel =       2
-    mband =         210        mffmem =           1         mkmem =          17
-   mkqmem =          17        mk1mem =          17           mpw =       13694
      nfft =      248832          nkpt =         100
================================================================================
P This job should need less than                    2375.266 Mbytes of memory.
  Rough estimation (10% accuracy) of disk space for files :
_ WF disk file :    292.033 Mbytes ; DEN or POT disk file :      1.900 Mbytes.
================================================================================

 Biggest array : cg(disk), with    745.9673 MBytes.
 memana : allocated an array of    745.967 Mbytes, for testing purposes.
 memana: allocated    2375.266Mbytes, for testing purposes. 
 The job will continue.

 DATASET    5 : space group P4 m m (# 99); Bravais tP (primitive tetrag.)

 getdim_nloc : deduce lmnmax  =  18, lnmax  =   6,
                      lmnmaxso=  18, lnmaxso=   6.
 memorf : analysis of memory needs
================================================================================
 Values of the parameters that define the memory need for DATASET  5 (RF).
     intxc =       0      iscf =      -3    lmnmax =       6     lnmax =       6
     mgfft =     192  mpssoang =       3    mqgrid =    9494     natom =      12
  nloc_mem =       1    nspden =       1   nspinor =       1    nsppol =       1
      nsym =       8    n1xccc =    2501    ntypat =       3    occopt =       1
   xclevel =       2
-    mband =         210        mffmem =           1         mkmem =          17
-   mkqmem =          17        mk1mem =          17           mpw =       13694
      nfft =      248832          nkpt =         100
================================================================================
P This job should need less than                    2375.266 Mbytes of memory.
  Rough estimation (10% accuracy) of disk space for files :
_ WF disk file :    292.033 Mbytes ; DEN or POT disk file :      1.900 Mbytes.
================================================================================

 Biggest array : cg(disk), with    745.9673 MBytes.
 memana : allocated an array of    745.967 Mbytes, for testing purposes.
 memana: allocated    2375.266Mbytes, for testing purposes. 
 The job will continue.

 DATASET    6 : space group P4 m m (# 99); Bravais tP (primitive tetrag.)

 getdim_nloc : deduce lmnmax  =  18, lnmax  =   6,
                      lmnmaxso=  18, lnmaxso=   6.
 memorf : analysis of memory needs
================================================================================
 Values of the parameters that define the memory need for DATASET  6 (RF).
     intxc =       0      iscf =      -3    lmnmax =       6     lnmax =       6
     mgfft =     192  mpssoang =       3    mqgrid =    9494     natom =      12
  nloc_mem =       1    nspden =       1   nspinor =       1    nsppol =       1
      nsym =       8    n1xccc =    2501    ntypat =       3    occopt =       1
   xclevel =       2
-    mband =         210        mffmem =           1         mkmem =          17
-   mkqmem =          17        mk1mem =          17           mpw =       13694
      nfft =      248832          nkpt =         100
================================================================================
P This job should need less than                    2375.266 Mbytes of memory.
  Rough estimation (10% accuracy) of disk space for files :
_ WF disk file :    292.033 Mbytes ; DEN or POT disk file :      1.900 Mbytes.
================================================================================

 Biggest array : cg(disk), with    745.9673 MBytes.
 memana : allocated an array of    745.967 Mbytes, for testing purposes.
 memana: allocated    2375.266Mbytes, for testing purposes. 
 The job will continue.
--------------------------------------------------------------------------------
------------- Echo of variables that govern the present computation ------------
--------------------------------------------------------------------------------
-
- outvars: echo of selected default values                                      
-   iomode0 =  0 , fftalg0 =112 , wfoptalg0 =  0
-
- outvars: echo of global parameters not present in the input file              
-  max_nthreads =    0
-
 -outvars: echo values of preprocessed input variables --------
 
 These variables are accessible in NetCDF format (Cs2TiI6o_OUT.nc)

            acell      7.7624316804E+00  7.7624316804E+00  7.7624316804E+00 Bohr
              amu      1.18710000E+02  7.89600000E+01  6.53900000E+01
           diemac      1.20000000E+01
             ecut      2.25000000E+01 Hartree
-          fftalg         112
           getden1          0
           getden2          1
           getden3          1
           getden4          0
           getden5          0
           getden6          0
           getwfk1          0
           getwfk2          1
           getwfk3          2
           getwfk4          3
           getwfk5          3
           getwfk6          3
             iscf1          7
             iscf2         -2
             iscf3         -2
             iscf4         -3
             iscf5         -3
             iscf6         -3
              ixc          11
           jdtset        1    2    3    4    5    6
              kpt1     5.00000000E-02  5.00000000E-02  2.50000000E-01
                       1.50000000E-01  5.00000000E-02  2.50000000E-01
                       2.50000000E-01  5.00000000E-02  2.50000000E-01
                       3.50000000E-01  5.00000000E-02  2.50000000E-01
                       4.50000000E-01  5.00000000E-02  2.50000000E-01
                       1.50000000E-01  1.50000000E-01  2.50000000E-01
                       2.50000000E-01  1.50000000E-01  2.50000000E-01
                       3.50000000E-01  1.50000000E-01  2.50000000E-01
                       4.50000000E-01  1.50000000E-01  2.50000000E-01
                       2.50000000E-01  2.50000000E-01  2.50000000E-01
                       3.50000000E-01  2.50000000E-01  2.50000000E-01
                       4.50000000E-01  2.50000000E-01  2.50000000E-01
                       3.50000000E-01  3.50000000E-01  2.50000000E-01
                       4.50000000E-01  3.50000000E-01  2.50000000E-01
                       4.50000000E-01  4.50000000E-01  2.50000000E-01
              kpt2     5.00000000E-02  5.00000000E-02  2.50000000E-01
                       1.50000000E-01  5.00000000E-02  2.50000000E-01
                       2.50000000E-01  5.00000000E-02  2.50000000E-01
                       3.50000000E-01  5.00000000E-02  2.50000000E-01
                       4.50000000E-01  5.00000000E-02  2.50000000E-01
                       1.50000000E-01  1.50000000E-01  2.50000000E-01
                       2.50000000E-01  1.50000000E-01  2.50000000E-01
                       3.50000000E-01  1.50000000E-01  2.50000000E-01
                       4.50000000E-01  1.50000000E-01  2.50000000E-01
                       2.50000000E-01  2.50000000E-01  2.50000000E-01
                       3.50000000E-01  2.50000000E-01  2.50000000E-01
                       4.50000000E-01  2.50000000E-01  2.50000000E-01
                       3.50000000E-01  3.50000000E-01  2.50000000E-01
                       4.50000000E-01  3.50000000E-01  2.50000000E-01
                       4.50000000E-01  4.50000000E-01  2.50000000E-01
              kpt3     5.00000000E-02  5.00000000E-02  2.50000000E-01
                       1.50000000E-01  5.00000000E-02  2.50000000E-01
                       2.50000000E-01  5.00000000E-02  2.50000000E-01
                       3.50000000E-01  5.00000000E-02  2.50000000E-01
                       4.50000000E-01  5.00000000E-02  2.50000000E-01
                      -4.50000000E-01  5.00000000E-02  2.50000000E-01
                      -3.50000000E-01  5.00000000E-02  2.50000000E-01
                      -2.50000000E-01  5.00000000E-02  2.50000000E-01
                      -1.50000000E-01  5.00000000E-02  2.50000000E-01
                      -5.00000000E-02  5.00000000E-02  2.50000000E-01
                       5.00000000E-02  1.50000000E-01  2.50000000E-01
                       1.50000000E-01  1.50000000E-01  2.50000000E-01
                       2.50000000E-01  1.50000000E-01  2.50000000E-01
                       3.50000000E-01  1.50000000E-01  2.50000000E-01
                       4.50000000E-01  1.50000000E-01  2.50000000E-01
                      -4.50000000E-01  1.50000000E-01  2.50000000E-01
                      -3.50000000E-01  1.50000000E-01  2.50000000E-01
                      -2.50000000E-01  1.50000000E-01  2.50000000E-01
                      -1.50000000E-01  1.50000000E-01  2.50000000E-01
                      -5.00000000E-02  1.50000000E-01  2.50000000E-01
                       5.00000000E-02  2.50000000E-01  2.50000000E-01
                       1.50000000E-01  2.50000000E-01  2.50000000E-01
                       2.50000000E-01  2.50000000E-01  2.50000000E-01
                       3.50000000E-01  2.50000000E-01  2.50000000E-01
                       4.50000000E-01  2.50000000E-01  2.50000000E-01
                      -4.50000000E-01  2.50000000E-01  2.50000000E-01
                      -3.50000000E-01  2.50000000E-01  2.50000000E-01
                      -2.50000000E-01  2.50000000E-01  2.50000000E-01
                      -1.50000000E-01  2.50000000E-01  2.50000000E-01
                      -5.00000000E-02  2.50000000E-01  2.50000000E-01
                       5.00000000E-02  3.50000000E-01  2.50000000E-01
                       1.50000000E-01  3.50000000E-01  2.50000000E-01
                       2.50000000E-01  3.50000000E-01  2.50000000E-01
                       3.50000000E-01  3.50000000E-01  2.50000000E-01
                       4.50000000E-01  3.50000000E-01  2.50000000E-01
                      -4.50000000E-01  3.50000000E-01  2.50000000E-01
                      -3.50000000E-01  3.50000000E-01  2.50000000E-01
                      -2.50000000E-01  3.50000000E-01  2.50000000E-01
                      -1.50000000E-01  3.50000000E-01  2.50000000E-01
                      -5.00000000E-02  3.50000000E-01  2.50000000E-01
                       5.00000000E-02  4.50000000E-01  2.50000000E-01
                       1.50000000E-01  4.50000000E-01  2.50000000E-01
                       2.50000000E-01  4.50000000E-01  2.50000000E-01
                       3.50000000E-01  4.50000000E-01  2.50000000E-01
                       4.50000000E-01  4.50000000E-01  2.50000000E-01
                      -4.50000000E-01  4.50000000E-01  2.50000000E-01
                      -3.50000000E-01  4.50000000E-01  2.50000000E-01
                      -2.50000000E-01  4.50000000E-01  2.50000000E-01
                      -1.50000000E-01  4.50000000E-01  2.50000000E-01
                      -5.00000000E-02  4.50000000E-01  2.50000000E-01
              kpt4     5.00000000E-02  5.00000000E-02  2.50000000E-01
                       1.50000000E-01  5.00000000E-02  2.50000000E-01
                       2.50000000E-01  5.00000000E-02  2.50000000E-01
                       3.50000000E-01  5.00000000E-02  2.50000000E-01
                       4.50000000E-01  5.00000000E-02  2.50000000E-01
                      -4.50000000E-01  5.00000000E-02  2.50000000E-01
                      -3.50000000E-01  5.00000000E-02  2.50000000E-01
                      -2.50000000E-01  5.00000000E-02  2.50000000E-01
                      -1.50000000E-01  5.00000000E-02  2.50000000E-01
                      -5.00000000E-02  5.00000000E-02  2.50000000E-01
                       5.00000000E-02  1.50000000E-01  2.50000000E-01
                       1.50000000E-01  1.50000000E-01  2.50000000E-01
                       2.50000000E-01  1.50000000E-01  2.50000000E-01
                       3.50000000E-01  1.50000000E-01  2.50000000E-01
                       4.50000000E-01  1.50000000E-01  2.50000000E-01
                      -4.50000000E-01  1.50000000E-01  2.50000000E-01
                      -3.50000000E-01  1.50000000E-01  2.50000000E-01
                      -2.50000000E-01  1.50000000E-01  2.50000000E-01
                      -1.50000000E-01  1.50000000E-01  2.50000000E-01
                      -5.00000000E-02  1.50000000E-01  2.50000000E-01
                       5.00000000E-02  2.50000000E-01  2.50000000E-01
                       1.50000000E-01  2.50000000E-01  2.50000000E-01
                       2.50000000E-01  2.50000000E-01  2.50000000E-01
                       3.50000000E-01  2.50000000E-01  2.50000000E-01
                       4.50000000E-01  2.50000000E-01  2.50000000E-01
                      -4.50000000E-01  2.50000000E-01  2.50000000E-01
                      -3.50000000E-01  2.50000000E-01  2.50000000E-01
                      -2.50000000E-01  2.50000000E-01  2.50000000E-01
                      -1.50000000E-01  2.50000000E-01  2.50000000E-01
                      -5.00000000E-02  2.50000000E-01  2.50000000E-01
                       5.00000000E-02  3.50000000E-01  2.50000000E-01
                       1.50000000E-01  3.50000000E-01  2.50000000E-01
                       2.50000000E-01  3.50000000E-01  2.50000000E-01
                       3.50000000E-01  3.50000000E-01  2.50000000E-01
                       4.50000000E-01  3.50000000E-01  2.50000000E-01
                      -4.50000000E-01  3.50000000E-01  2.50000000E-01
                      -3.50000000E-01  3.50000000E-01  2.50000000E-01
                      -2.50000000E-01  3.50000000E-01  2.50000000E-01
                      -1.50000000E-01  3.50000000E-01  2.50000000E-01
                      -5.00000000E-02  3.50000000E-01  2.50000000E-01
                       5.00000000E-02  4.50000000E-01  2.50000000E-01
                       1.50000000E-01  4.50000000E-01  2.50000000E-01
                       2.50000000E-01  4.50000000E-01  2.50000000E-01
                       3.50000000E-01  4.50000000E-01  2.50000000E-01
                       4.50000000E-01  4.50000000E-01  2.50000000E-01
                      -4.50000000E-01  4.50000000E-01  2.50000000E-01
                      -3.50000000E-01  4.50000000E-01  2.50000000E-01
                      -2.50000000E-01  4.50000000E-01  2.50000000E-01
                      -1.50000000E-01  4.50000000E-01  2.50000000E-01
                      -5.00000000E-02  4.50000000E-01  2.50000000E-01
              kpt5     5.00000000E-02  5.00000000E-02  2.50000000E-01
                       1.50000000E-01  5.00000000E-02  2.50000000E-01
                       2.50000000E-01  5.00000000E-02  2.50000000E-01
                       3.50000000E-01  5.00000000E-02  2.50000000E-01
                       4.50000000E-01  5.00000000E-02  2.50000000E-01
                      -4.50000000E-01  5.00000000E-02  2.50000000E-01
                      -3.50000000E-01  5.00000000E-02  2.50000000E-01
                      -2.50000000E-01  5.00000000E-02  2.50000000E-01
                      -1.50000000E-01  5.00000000E-02  2.50000000E-01
                      -5.00000000E-02  5.00000000E-02  2.50000000E-01
                       5.00000000E-02  1.50000000E-01  2.50000000E-01
                       1.50000000E-01  1.50000000E-01  2.50000000E-01
                       2.50000000E-01  1.50000000E-01  2.50000000E-01
                       3.50000000E-01  1.50000000E-01  2.50000000E-01
                       4.50000000E-01  1.50000000E-01  2.50000000E-01
                      -4.50000000E-01  1.50000000E-01  2.50000000E-01
                      -3.50000000E-01  1.50000000E-01  2.50000000E-01
                      -2.50000000E-01  1.50000000E-01  2.50000000E-01
                      -1.50000000E-01  1.50000000E-01  2.50000000E-01
                      -5.00000000E-02  1.50000000E-01  2.50000000E-01
                       5.00000000E-02  2.50000000E-01  2.50000000E-01
                       1.50000000E-01  2.50000000E-01  2.50000000E-01
                       2.50000000E-01  2.50000000E-01  2.50000000E-01
                       3.50000000E-01  2.50000000E-01  2.50000000E-01
                       4.50000000E-01  2.50000000E-01  2.50000000E-01
                      -4.50000000E-01  2.50000000E-01  2.50000000E-01
                      -3.50000000E-01  2.50000000E-01  2.50000000E-01
                      -2.50000000E-01  2.50000000E-01  2.50000000E-01
                      -1.50000000E-01  2.50000000E-01  2.50000000E-01
                      -5.00000000E-02  2.50000000E-01  2.50000000E-01
                       5.00000000E-02  3.50000000E-01  2.50000000E-01
                       1.50000000E-01  3.50000000E-01  2.50000000E-01
                       2.50000000E-01  3.50000000E-01  2.50000000E-01
                       3.50000000E-01  3.50000000E-01  2.50000000E-01
                       4.50000000E-01  3.50000000E-01  2.50000000E-01
                      -4.50000000E-01  3.50000000E-01  2.50000000E-01
                      -3.50000000E-01  3.50000000E-01  2.50000000E-01
                      -2.50000000E-01  3.50000000E-01  2.50000000E-01
                      -1.50000000E-01  3.50000000E-01  2.50000000E-01
                      -5.00000000E-02  3.50000000E-01  2.50000000E-01
                       5.00000000E-02  4.50000000E-01  2.50000000E-01
                       1.50000000E-01  4.50000000E-01  2.50000000E-01
                       2.50000000E-01  4.50000000E-01  2.50000000E-01
                       3.50000000E-01  4.50000000E-01  2.50000000E-01
                       4.50000000E-01  4.50000000E-01  2.50000000E-01
                      -4.50000000E-01  4.50000000E-01  2.50000000E-01
                      -3.50000000E-01  4.50000000E-01  2.50000000E-01
                      -2.50000000E-01  4.50000000E-01  2.50000000E-01
                      -1.50000000E-01  4.50000000E-01  2.50000000E-01
                      -5.00000000E-02  4.50000000E-01  2.50000000E-01
              kpt6     5.00000000E-02  5.00000000E-02  2.50000000E-01
                       1.50000000E-01  5.00000000E-02  2.50000000E-01
                       2.50000000E-01  5.00000000E-02  2.50000000E-01
                       3.50000000E-01  5.00000000E-02  2.50000000E-01
                       4.50000000E-01  5.00000000E-02  2.50000000E-01
                      -4.50000000E-01  5.00000000E-02  2.50000000E-01
                      -3.50000000E-01  5.00000000E-02  2.50000000E-01
                      -2.50000000E-01  5.00000000E-02  2.50000000E-01
                      -1.50000000E-01  5.00000000E-02  2.50000000E-01
                      -5.00000000E-02  5.00000000E-02  2.50000000E-01
                       5.00000000E-02  1.50000000E-01  2.50000000E-01
                       1.50000000E-01  1.50000000E-01  2.50000000E-01
                       2.50000000E-01  1.50000000E-01  2.50000000E-01
                       3.50000000E-01  1.50000000E-01  2.50000000E-01
                       4.50000000E-01  1.50000000E-01  2.50000000E-01
                      -4.50000000E-01  1.50000000E-01  2.50000000E-01
                      -3.50000000E-01  1.50000000E-01  2.50000000E-01
                      -2.50000000E-01  1.50000000E-01  2.50000000E-01
                      -1.50000000E-01  1.50000000E-01  2.50000000E-01
                      -5.00000000E-02  1.50000000E-01  2.50000000E-01
                       5.00000000E-02  2.50000000E-01  2.50000000E-01
                       1.50000000E-01  2.50000000E-01  2.50000000E-01
                       2.50000000E-01  2.50000000E-01  2.50000000E-01
                       3.50000000E-01  2.50000000E-01  2.50000000E-01
                       4.50000000E-01  2.50000000E-01  2.50000000E-01
                      -4.50000000E-01  2.50000000E-01  2.50000000E-01
                      -3.50000000E-01  2.50000000E-01  2.50000000E-01
                      -2.50000000E-01  2.50000000E-01  2.50000000E-01
                      -1.50000000E-01  2.50000000E-01  2.50000000E-01
                      -5.00000000E-02  2.50000000E-01  2.50000000E-01
                       5.00000000E-02  3.50000000E-01  2.50000000E-01
                       1.50000000E-01  3.50000000E-01  2.50000000E-01
                       2.50000000E-01  3.50000000E-01  2.50000000E-01
                       3.50000000E-01  3.50000000E-01  2.50000000E-01
                       4.50000000E-01  3.50000000E-01  2.50000000E-01
                      -4.50000000E-01  3.50000000E-01  2.50000000E-01
                      -3.50000000E-01  3.50000000E-01  2.50000000E-01
                      -2.50000000E-01  3.50000000E-01  2.50000000E-01
                      -1.50000000E-01  3.50000000E-01  2.50000000E-01
                      -5.00000000E-02  3.50000000E-01  2.50000000E-01
                       5.00000000E-02  4.50000000E-01  2.50000000E-01
                       1.50000000E-01  4.50000000E-01  2.50000000E-01
                       2.50000000E-01  4.50000000E-01  2.50000000E-01
                       3.50000000E-01  4.50000000E-01  2.50000000E-01
                       4.50000000E-01  4.50000000E-01  2.50000000E-01
                      -4.50000000E-01  4.50000000E-01  2.50000000E-01
                      -3.50000000E-01  4.50000000E-01  2.50000000E-01
                      -2.50000000E-01  4.50000000E-01  2.50000000E-01
                      -1.50000000E-01  4.50000000E-01  2.50000000E-01
                      -5.00000000E-02  4.50000000E-01  2.50000000E-01
                       outvar_i_n : Printing only first  50 k-points.
           kptopt1          1
           kptopt2          1
           kptopt3          2
           kptopt4          2
           kptopt5          2
           kptopt6          2
         kptrlatt       10    0    0      0   10    0      0    0    2
          kptrlen      7.76243168E+01
P           mkmem1          3
P           mkmem2          3
P           mkmem3         17
P           mkmem4         17
P           mkmem5         17
P           mkmem6         17
P          mkqmem1          3
P          mkqmem2          3
P          mkqmem3         17
P          mkqmem4         17
P          mkqmem5         17
P          mkqmem6         17
P          mk1mem1          3
P          mk1mem2          3
P          mk1mem3         17
P          mk1mem4         17
P          mk1mem5         17
P          mk1mem6         17
            natom          12
            nband1         98
            nband2        210
            nband3        210
            nband4        210
            nband5        210
            nband6        210
           nbdbuf1          0
           nbdbuf2          2
           nbdbuf3          2
           nbdbuf4          2
           nbdbuf5          2
           nbdbuf6          2
           ndtset           6
            ngfft          36      36     192
             nkpt1         15
             nkpt2         15
             nkpt3        100
             nkpt4        100
             nkpt5        100
             nkpt6        100
            nline1          4
            nline2          4
            nline3          4
            nline4          0
            nline5          0
            nline6          0
             nqpt1          0
             nqpt2          0
             nqpt3          0
             nqpt4          1
             nqpt5          1
             nqpt6          1
            nstep1        400
            nstep2        200
            nstep3        200
            nstep4          1
            nstep5          1
            nstep6          1
             nsym           8
           ntypat           3
              occ1     2.000000  2.000000  2.000000  2.000000  2.000000  2.000000
                       2.000000  2.000000  2.000000  2.000000  2.000000  2.000000
                       2.000000  2.000000  2.000000  2.000000  2.000000  2.000000
                       2.000000  2.000000  2.000000  2.000000  2.000000  2.000000
                       2.000000  2.000000  2.000000  2.000000  2.000000  2.000000
                       2.000000  2.000000  2.000000  2.000000  2.000000  2.000000
                       2.000000  2.000000  2.000000  2.000000  2.000000  2.000000
                       2.000000  2.000000  2.000000  2.000000  2.000000  2.000000
                       2.000000  2.000000  2.000000  2.000000  2.000000  2.000000
                       2.000000  2.000000  2.000000  2.000000  2.000000  2.000000
                       2.000000  2.000000  2.000000  2.000000  2.000000  2.000000
                       2.000000  2.000000  2.000000  2.000000  2.000000  2.000000
                       2.000000  2.000000  2.000000  2.000000  2.000000  2.000000
                       2.000000  2.000000  2.000000  2.000000  2.000000  2.000000
                       2.000000  2.000000  2.000000  2.000000  2.000000  2.000000
                       2.000000  2.000000  2.000000  2.000000  2.000000  2.000000
                       0.000000  0.000000
              occ4     2.000000  2.000000  2.000000  2.000000  2.000000  2.000000
                       2.000000  2.000000  2.000000  2.000000  2.000000  2.000000
                       2.000000  2.000000  2.000000  2.000000  2.000000  2.000000
                       2.000000  2.000000  2.000000  2.000000  2.000000  2.000000
                       2.000000  2.000000  2.000000  2.000000  2.000000  2.000000
                       2.000000  2.000000  2.000000  2.000000  2.000000  2.000000
                       2.000000  2.000000  2.000000  2.000000  2.000000  2.000000
                       2.000000  2.000000  2.000000  2.000000  2.000000  2.000000
                       2.000000  2.000000  2.000000  2.000000  2.000000  2.000000
                       2.000000  2.000000  2.000000  2.000000  2.000000  2.000000
                       2.000000  2.000000  2.000000  2.000000  2.000000  2.000000
                       2.000000  2.000000  2.000000  2.000000  2.000000  2.000000
                       2.000000  2.000000  2.000000  2.000000  2.000000  2.000000
                       2.000000  2.000000  2.000000  2.000000  2.000000  2.000000
                       2.000000  2.000000  2.000000  2.000000  2.000000  2.000000
                       2.000000  2.000000  2.000000  2.000000  2.000000  2.000000
                       0.000000  0.000000  0.000000  0.000000  0.000000  0.000000
                       0.000000  0.000000  0.000000  0.000000  0.000000  0.000000
                       0.000000  0.000000  0.000000  0.000000  0.000000  0.000000
                       0.000000  0.000000  0.000000  0.000000  0.000000  0.000000
                       0.000000  0.000000  0.000000  0.000000  0.000000  0.000000
                       0.000000  0.000000  0.000000  0.000000  0.000000  0.000000
                       0.000000  0.000000  0.000000  0.000000  0.000000  0.000000
                       0.000000  0.000000  0.000000  0.000000  0.000000  0.000000
                       0.000000  0.000000  0.000000  0.000000  0.000000  0.000000
                       0.000000  0.000000  0.000000  0.000000  0.000000  0.000000
                       0.000000  0.000000  0.000000  0.000000  0.000000  0.000000
                       0.000000  0.000000  0.000000  0.000000  0.000000  0.000000
                       0.000000  0.000000  0.000000  0.000000  0.000000  0.000000
                       0.000000  0.000000  0.000000  0.000000  0.000000  0.000000
                       0.000000  0.000000  0.000000  0.000000  0.000000  0.000000
                       0.000000  0.000000  0.000000  0.000000  0.000000  0.000000
                       0.000000  0.000000  0.000000  0.000000  0.000000  0.000000
                       0.000000  0.000000  0.000000  0.000000  0.000000  0.000000
                       0.000000  0.000000  0.000000  0.000000  0.000000  0.000000
              occ5     2.000000  2.000000  2.000000  2.000000  2.000000  2.000000
                       2.000000  2.000000  2.000000  2.000000  2.000000  2.000000
                       2.000000  2.000000  2.000000  2.000000  2.000000  2.000000
                       2.000000  2.000000  2.000000  2.000000  2.000000  2.000000
                       2.000000  2.000000  2.000000  2.000000  2.000000  2.000000
                       2.000000  2.000000  2.000000  2.000000  2.000000  2.000000
                       2.000000  2.000000  2.000000  2.000000  2.000000  2.000000
                       2.000000  2.000000  2.000000  2.000000  2.000000  2.000000
                       2.000000  2.000000  2.000000  2.000000  2.000000  2.000000
                       2.000000  2.000000  2.000000  2.000000  2.000000  2.000000
                       2.000000  2.000000  2.000000  2.000000  2.000000  2.000000
                       2.000000  2.000000  2.000000  2.000000  2.000000  2.000000
                       2.000000  2.000000  2.000000  2.000000  2.000000  2.000000
                       2.000000  2.000000  2.000000  2.000000  2.000000  2.000000
                       2.000000  2.000000  2.000000  2.000000  2.000000  2.000000
                       2.000000  2.000000  2.000000  2.000000  2.000000  2.000000
                       0.000000  0.000000  0.000000  0.000000  0.000000  0.000000
                       0.000000  0.000000  0.000000  0.000000  0.000000  0.000000
                       0.000000  0.000000  0.000000  0.000000  0.000000  0.000000
                       0.000000  0.000000  0.000000  0.000000  0.000000  0.000000
                       0.000000  0.000000  0.000000  0.000000  0.000000  0.000000
                       0.000000  0.000000  0.000000  0.000000  0.000000  0.000000
                       0.000000  0.000000  0.000000  0.000000  0.000000  0.000000
                       0.000000  0.000000  0.000000  0.000000  0.000000  0.000000
                       0.000000  0.000000  0.000000  0.000000  0.000000  0.000000
                       0.000000  0.000000  0.000000  0.000000  0.000000  0.000000
                       0.000000  0.000000  0.000000  0.000000  0.000000  0.000000
                       0.000000  0.000000  0.000000  0.000000  0.000000  0.000000
                       0.000000  0.000000  0.000000  0.000000  0.000000  0.000000
                       0.000000  0.000000  0.000000  0.000000  0.000000  0.000000
                       0.000000  0.000000  0.000000  0.000000  0.000000  0.000000
                       0.000000  0.000000  0.000000  0.000000  0.000000  0.000000
                       0.000000  0.000000  0.000000  0.000000  0.000000  0.000000
                       0.000000  0.000000  0.000000  0.000000  0.000000  0.000000
                       0.000000  0.000000  0.000000  0.000000  0.000000  0.000000
              occ6     2.000000  2.000000  2.000000  2.000000  2.000000  2.000000
                       2.000000  2.000000  2.000000  2.000000  2.000000  2.000000
                       2.000000  2.000000  2.000000  2.000000  2.000000  2.000000
                       2.000000  2.000000  2.000000  2.000000  2.000000  2.000000
                       2.000000  2.000000  2.000000  2.000000  2.000000  2.000000
                       2.000000  2.000000  2.000000  2.000000  2.000000  2.000000
                       2.000000  2.000000  2.000000  2.000000  2.000000  2.000000
                       2.000000  2.000000  2.000000  2.000000  2.000000  2.000000
                       2.000000  2.000000  2.000000  2.000000  2.000000  2.000000
                       2.000000  2.000000  2.000000  2.000000  2.000000  2.000000
                       2.000000  2.000000  2.000000  2.000000  2.000000  2.000000
                       2.000000  2.000000  2.000000  2.000000  2.000000  2.000000
                       2.000000  2.000000  2.000000  2.000000  2.000000  2.000000
                       2.000000  2.000000  2.000000  2.000000  2.000000  2.000000
                       2.000000  2.000000  2.000000  2.000000  2.000000  2.000000
                       2.000000  2.000000  2.000000  2.000000  2.000000  2.000000
                       0.000000  0.000000  0.000000  0.000000  0.000000  0.000000
                       0.000000  0.000000  0.000000  0.000000  0.000000  0.000000
                       0.000000  0.000000  0.000000  0.000000  0.000000  0.000000
                       0.000000  0.000000  0.000000  0.000000  0.000000  0.000000
                       0.000000  0.000000  0.000000  0.000000  0.000000  0.000000
                       0.000000  0.000000  0.000000  0.000000  0.000000  0.000000
                       0.000000  0.000000  0.000000  0.000000  0.000000  0.000000
                       0.000000  0.000000  0.000000  0.000000  0.000000  0.000000
                       0.000000  0.000000  0.000000  0.000000  0.000000  0.000000
                       0.000000  0.000000  0.000000  0.000000  0.000000  0.000000
                       0.000000  0.000000  0.000000  0.000000  0.000000  0.000000
                       0.000000  0.000000  0.000000  0.000000  0.000000  0.000000
                       0.000000  0.000000  0.000000  0.000000  0.000000  0.000000
                       0.000000  0.000000  0.000000  0.000000  0.000000  0.000000
                       0.000000  0.000000  0.000000  0.000000  0.000000  0.000000
                       0.000000  0.000000  0.000000  0.000000  0.000000  0.000000
                       0.000000  0.000000  0.000000  0.000000  0.000000  0.000000
                       0.000000  0.000000  0.000000  0.000000  0.000000  0.000000
                       0.000000  0.000000  0.000000  0.000000  0.000000  0.000000
        optdriver1          0
        optdriver2          0
        optdriver3          0
        optdriver4          1
        optdriver5          1
        optdriver6          1
            prtwf1          1
            prtwf2          1
            prtwf3          1
            prtwf4          3
            prtwf5          3
            prtwf6          3
            rfdir1          0       0       0
            rfdir2          0       0       0
            rfdir3          0       0       0
            rfdir4          1       0       0
            rfdir5          0       1       0
            rfdir6          0       0       1
           rfelfd1          0
           rfelfd2          0
           rfelfd3          0
           rfelfd4          2
           rfelfd5          2
           rfelfd6          2
            rprim      1.0000000000E+00  0.0000000000E+00  0.0000000000E+00
                       0.0000000000E+00  1.0000000000E+00  0.0000000000E+00
                       0.0000000000E+00  0.0000000000E+00  5.7277782079E+00
           shiftk      5.00000000E-01  5.00000000E-01  5.00000000E-01
          spgroup          99
           symrel      1  0  0   0  1  0   0  0  1       1  0  0   0 -1  0   0  0  1
                      -1  0  0   0 -1  0   0  0  1      -1  0  0   0  1  0   0  0  1
                       0  1  0   1  0  0   0  0  1       0  1  0  -1  0  0   0  0  1
                       0 -1  0  -1  0  0   0  0  1       0 -1  0   1  0  0   0  0  1
            tnons      0.0000000  0.0000000  0.0000000     0.0000000  0.0000000  0.0000000
                       0.0000000  0.0000000  0.0000000     0.0000000  0.0000000  0.0000000
                       0.5000000  0.5000000  0.0000000     0.5000000  0.5000000  0.0000000
                       0.5000000  0.5000000  0.0000000     0.5000000  0.5000000  0.0000000
           tolwfr      1.00000000E-20
            typat      1  1  1  1  2  2  2  2  2  2  3  3
           vdw_xc           5
              wtk1       0.04000    0.08000    0.08000    0.08000    0.08000    0.04000
                         0.08000    0.08000    0.08000    0.04000    0.08000    0.08000
                         0.04000    0.08000    0.04000
              wtk2       0.04000    0.08000    0.08000    0.08000    0.08000    0.04000
                         0.08000    0.08000    0.08000    0.04000    0.08000    0.08000
                         0.04000    0.08000    0.04000
              wtk3       0.01000    0.01000    0.01000    0.01000    0.01000    0.01000
                         0.01000    0.01000    0.01000    0.01000    0.01000    0.01000
                         0.01000    0.01000    0.01000    0.01000    0.01000    0.01000
                         0.01000    0.01000    0.01000    0.01000    0.01000    0.01000
                         0.01000    0.01000    0.01000    0.01000    0.01000    0.01000
                         0.01000    0.01000    0.01000    0.01000    0.01000    0.01000
                         0.01000    0.01000    0.01000    0.01000    0.01000    0.01000
                         0.01000    0.01000    0.01000    0.01000    0.01000    0.01000
                         0.01000    0.01000
              wtk4       0.01000    0.01000    0.01000    0.01000    0.01000    0.01000
                         0.01000    0.01000    0.01000    0.01000    0.01000    0.01000
                         0.01000    0.01000    0.01000    0.01000    0.01000    0.01000
                         0.01000    0.01000    0.01000    0.01000    0.01000    0.01000
                         0.01000    0.01000    0.01000    0.01000    0.01000    0.01000
                         0.01000    0.01000    0.01000    0.01000    0.01000    0.01000
                         0.01000    0.01000    0.01000    0.01000    0.01000    0.01000
                         0.01000    0.01000    0.01000    0.01000    0.01000    0.01000
                         0.01000    0.01000
              wtk5       0.01000    0.01000    0.01000    0.01000    0.01000    0.01000
                         0.01000    0.01000    0.01000    0.01000    0.01000    0.01000
                         0.01000    0.01000    0.01000    0.01000    0.01000    0.01000
                         0.01000    0.01000    0.01000    0.01000    0.01000    0.01000
                         0.01000    0.01000    0.01000    0.01000    0.01000    0.01000
                         0.01000    0.01000    0.01000    0.01000    0.01000    0.01000
                         0.01000    0.01000    0.01000    0.01000    0.01000    0.01000
                         0.01000    0.01000    0.01000    0.01000    0.01000    0.01000
                         0.01000    0.01000
              wtk6       0.01000    0.01000    0.01000    0.01000    0.01000    0.01000
                         0.01000    0.01000    0.01000    0.01000    0.01000    0.01000
                         0.01000    0.01000    0.01000    0.01000    0.01000    0.01000
                         0.01000    0.01000    0.01000    0.01000    0.01000    0.01000
                         0.01000    0.01000    0.01000    0.01000    0.01000    0.01000
                         0.01000    0.01000    0.01000    0.01000    0.01000    0.01000
                         0.01000    0.01000    0.01000    0.01000    0.01000    0.01000
                         0.01000    0.01000    0.01000    0.01000    0.01000    0.01000
                         0.01000    0.01000
                       outvars : Printing only first  50 k-points.
           xangst      2.0538509643E+00  0.0000000000E+00  4.6664740448E+00
                       0.0000000000E+00  2.0538509643E+00  7.4160979462E+00
                       2.0538509643E+00  0.0000000000E+00  1.0102196232E+01
                       0.0000000000E+00  2.0538509643E+00  1.2851820134E+01
                       0.0000000000E+00  2.0538509643E+00  4.6982368524E+00
                       2.0538509643E+00  0.0000000000E+00  7.3843351386E+00
                       0.0000000000E+00  2.0538509643E+00  1.0133959040E+01
                       2.0538509643E+00  0.0000000000E+00  1.2820057326E+01
                       2.0538509643E+00  0.0000000000E+00  1.5871522011E+01
                       0.0000000000E+00  2.0538509643E+00  1.8861531546E+01
                       2.0538509643E+00  2.0538509643E+00  1.7366538543E+01
                       0.0000000000E+00  0.0000000000E+00  1.7366538543E+01
            xcart      3.8812158402E+00  0.0000000000E+00  8.8183579509E+00
                       0.0000000000E+00  3.8812158402E+00  1.4014394093E+01
                       3.8812158402E+00  0.0000000000E+00  1.9090384220E+01
                       0.0000000000E+00  3.8812158402E+00  2.4286420362E+01
                       0.0000000000E+00  3.8812158402E+00  8.8783809584E+00
                       3.8812158402E+00  0.0000000000E+00  1.3954371085E+01
                       0.0000000000E+00  3.8812158402E+00  1.9150407227E+01
                       3.8812158402E+00  0.0000000000E+00  2.4226397354E+01
                       3.8812158402E+00  0.0000000000E+00  2.9992829913E+01
                       0.0000000000E+00  3.8812158402E+00  3.5643129068E+01
                       3.8812158402E+00  3.8812158402E+00  3.2818001722E+01
                       0.0000000000E+00  0.0000000000E+00  3.2818001722E+01
             xred      5.0000000000E-01  0.0000000000E+00  1.9833700000E-01
                       0.0000000000E+00  5.0000000000E-01  3.1520300000E-01
                       5.0000000000E-01  0.0000000000E+00  4.2936900000E-01
                       0.0000000000E+00  5.0000000000E-01  5.4623500000E-01
                       0.0000000000E+00  5.0000000000E-01  1.9968700000E-01
                       5.0000000000E-01  0.0000000000E+00  3.1385300000E-01
                       0.0000000000E+00  5.0000000000E-01  4.3071900000E-01
                       5.0000000000E-01  0.0000000000E+00  5.4488500000E-01
                       5.0000000000E-01  0.0000000000E+00  6.7458000000E-01
                       0.0000000000E+00  5.0000000000E-01  8.0166300000E-01
                       5.0000000000E-01  5.0000000000E-01  7.3812200000E-01
                       0.0000000000E+00  0.0000000000E+00  7.3812200000E-01
            znucl       50.00000   34.00000   30.00000

================================================================================

 chkinp: Checking input parameters for consistency, jdtset=   1.

 chkinp: Checking input parameters for consistency, jdtset=   2.

 chkinp: Checking input parameters for consistency, jdtset=   3.

 chkinp: Checking input parameters for consistency, jdtset=   4.

 chkinp: Checking input parameters for consistency, jdtset=   5.

 chkinp: Checking input parameters for consistency, jdtset=   6.
 DATA TYPE INFORMATION: 
 REAL:      Data type name: REAL(DP) 
            Kind value:      8
            Precision:      15
            Smallest nonnegligible quantity relative to 1: 0.22204460E-015
            Smallest positive number:                      0.22250739E-307
            Largest representable number:                  0.17976931E+309
 INTEGER:   Data type name: INTEGER(default) 
            Kind value: 4
            Bit size:   32
            Largest representable number: 2147483647
 LOGICAL:   Data type name: LOGICAL 
            Kind value: 4
 CHARACTER: Data type name: CHARACTER             Kind value: 1

  ==== OpenMP parallelism is OFF ====
 
  ==== Using MPI-2 specifications ==== 
  MPI-IO support is ON
  xmpi_tag_ub ................   2147483647
  xmpi_bsize_ch ..............            1
  xmpi_bsize_int .............            4
  xmpi_bsize_sp ..............            4
  xmpi_bsize_dp ..............            8
  xmpi_bsize_spc .............            8
  xmpi_bsize_dpc .............           16
  xmpio_bsize_frm ............            4
  xmpi_address_kind ..........            8
  xmpi_offset_kind ...........            8
  MPI_WTICK ..................    1.0000000000000001E-009

================================================================================
== DATASET  1 ==================================================================
-   mpi_nproc: 6, omp_nthreads: -1 (-1 if OMP is not activated)


--- !COMMENT
src_file: m_xgScalapack.F90
src_line: 236
message: |
    xgScalapack in auto mode
...


 getdim_nloc : deduce lmnmax  =  18, lnmax  =   6,
                      lmnmaxso=  18, lnmaxso=   6.
 Exchange-correlation functional for the present dataset will be:
  GGA: Perdew-Burke-Ernzerhof functional - ixc=11
 Citation for XC functional:
  J.P.Perdew, K.Burke, M.Ernzerhof, PRL 77, 3865 (1996)

 Unit cell volume ucvol=  2.6790423E+03 bohr^3
 Angles (23,13,12)=  9.00000000E+01  9.00000000E+01  9.00000000E+01 degrees

 getcut: wavevector=  0.0000  0.0000  0.0000  ngfft=  36  36 192
         ecut(hartree)=     22.500   => boxcut(ratio)=   2.02237
- pspini: atom type   1  psp file is ../../../Psps_for_tests/ATOMICDATA_NC/Sn.psp8
- pspatm: opening atomic psp file    ../../../Psps_for_tests/ATOMICDATA_NC/Sn.psp8
- Sn    ONCVPSP  r_core=  2.27  2.62  1.86
- 50.00000  14.00000    150810                znucl, zion, pspdat
    8   11    2    4       600   0.00000      pspcod,pspxc,lmax,lloc,mmax,r2well
    5.99000000000000    6.50000000000000    0.00000000000000   rchrg,fchrg,qchrg
     nproj     2     2     2
     extension_switch     1
  valence charge integrates to:    13.912521222389802     
  pspatm : epsatm=   32.65190642
         --- l  ekb(1:nproj) -->
             0    5.462393    0.682281
             1    4.443814    0.825686
             2   -5.382195   -1.704077
 pspatm: atomic psp has been read  and splines computed

- pspini: atom type   2  psp file is ../../../Psps_for_tests/ATOMICDATA_NC/Se.psp8
- pspatm: opening atomic psp file    ../../../Psps_for_tests/ATOMICDATA_NC/Se.psp8
- Se    ONCVPSP  r_core=  1.82  1.50  1.91
- 34.00000  16.00000    150729                znucl, zion, pspdat
    8   11    2    4       600   0.00000      pspcod,pspxc,lmax,lloc,mmax,r2well
    5.99000000000000    5.00000000000000    0.00000000000000   rchrg,fchrg,qchrg
     nproj     2     2     2
     extension_switch     1
  valence charge integrates to:    15.981819523532332     
  pspatm : epsatm=   29.53325930
         --- l  ekb(1:nproj) -->
             0    8.612261    0.939919
             1    6.984962    1.281898
             2   -9.322521   -3.856218
 pspatm: atomic psp has been read  and splines computed

- pspini: atom type   3  psp file is ../../../Psps_for_tests/ATOMICDATA_NC/Zn.psp8
- pspatm: opening atomic psp file    ../../../Psps_for_tests/ATOMICDATA_NC/Zn.psp8
- Zn    ONCVPSP  r_core=  1.36  1.66  1.85
- 30.00000  20.00000    161102                znucl, zion, pspdat
    8   11    2    4       600   0.00000      pspcod,pspxc,lmax,lloc,mmax,r2well
    5.99000000000000    2.50000000000000    0.00000000000000   rchrg,fchrg,qchrg
     nproj     2     2     2
     extension_switch     1
  valence charge integrates to:    19.977025053306086     
  pspatm : epsatm=   26.67245340
         --- l  ekb(1:nproj) -->
             0    2.404235   -1.533451
             1   -4.677427   -1.530630
             2   -7.000316   -2.622858
 pspatm: atomic psp has been read  and splines computed

   6.93412010E+04                                ecore*ucvol(ha*bohr**3)
 ==== Info on pseudopotentials ====
  Norm-conserving pseudopotentials
  Number of pseudopotentials ..    3
  Number of types of atoms   ..    3
  Scalar calculation (no spin-orbit term)
  Nonlocal part applied using Legendre polynomials
  Max number of non-local projectors over l and type   2
  Highest angular momentum +1 .......   3
  Max number of (l,n)   components ..   6
  Max number of (l,m,n) components ..   6

 Pseudo-Core Charge Info: 
   Number of radial points for pseudo-core charge .. 2501
   XC core-correction treatment (optnlxccc) ........    1
   Radius for pseudo-core charge for each type ..... 

  - Atom type    1 has pseudo-core radius ..  5.9900
  - Atom type    2 has pseudo-core radius ..  5.9900
  - Atom type    3 has pseudo-core radius ..  5.9900

 Info on the Q-grid used for form factors in spline form: 
   Number of q-points for radial functions ffspl ..   9494
   Number of q-points for vlspl ...................   9494
   vloc is computed in Reciprocal Space
   model core charge treated in real-space

  XC functional for type 1 is 11
  Pseudo valence available: yes
  XC functional for type 2 is 11
  Pseudo valence available: yes
  XC functional for type 3 is 11
  Pseudo valence available: yes

 wfconv:    98 bands initialized randomly with npw= 13694, for ikpt=     1
 wfconv:    98 bands initialized randomly with npw= 13678, for ikpt=     2
 wfconv:    98 bands initialized randomly with npw= 13645, for ikpt=     3
_setup2: Arith. and geom. avg. npw (full set) are   13657.560   13657.554
 initro: for itypat=  1, take pseudo charge density from pp file
 initro: for itypat=  2, take pseudo charge density from pp file
 initro: for itypat=  3, take pseudo charge density from pp file

================================================================================

 getcut: wavevector=  0.0000  0.0000  0.0000  ngfft=  36  36 192
         ecut(hartree)=     22.500   => boxcut(ratio)=   2.02237

 1/G**2 cut-off applied in the following step : cutoff-mode = CRYSTAL

  --------------------------------------------------------------
  Van der Waals DFT-D2 semi-empirical dispersion potential added
      with following parameters:
      Specie  C6 (J.nm^6.mol^-1)  R0 (Ang)
      ------------------------------------
         Sn           38.71         1.804
         Se           12.64         1.771
         Zn           10.80         1.562

      Scaling factor   =   0.75
      Damping parameter=  20.00
      Cut-off radius   = 130.92 bohr

      Number of pairs contributing =   272988
      DFT-D2 energy contribution   =   -1.32217E-01 Ha
  --------------------------------------------------------------


 1/G**2 cut-off applied in the following step : cutoff-mode = CRYSTAL

 1/G**2 cut-off applied in the following step : cutoff-mode = CRYSTAL

--- !WARNING
src_file: m_drivexc.F90
src_line: 707
message: |
    Density went too small (lower than xc_denpos) at 17112 points
    and was set to xc_denpos =   1.00E-14. Lowest was  -0.60E-03.
    Likely due to too low boxcut or too low ecut for pseudopotential core charge.
...


 ITER STEP NUMBER     1
 vtorho: nnsclo_now = 2, note that nnsclo, dbl_nnsclo, istep= 0 0 1
 Total charge density [el/Bohr^3]
      Maximum=    3.2725E+00  at reduced coord.    0.5000    0.5000    0.7292
      Minimum=    3.4261E-03  at reduced coord.    0.2222    0.2778    0.9896
   Integrated=    1.9200E+02

 1/G**2 cut-off applied in the following step : cutoff-mode = CRYSTAL
 ETOT  1  -1287.4911155741    -1.287E+03 7.471E-01 1.015E+07
 scprqt: <Vxc>= -3.5788489E-01 hartree

 Simple mixing update:
  residual square of the potential:    144770.87380996579
 scfcv_core: previous iteration took 01:30 [minutes]

 ITER STEP NUMBER     2
 vtorho: nnsclo_now = 2, note that nnsclo, dbl_nnsclo, istep= 0 0 2
 Total charge density [el/Bohr^3]
      Maximum=    5.9275E+00  at reduced coord.    0.9722    0.9722    0.7292
      Minimum=    2.2909E-04  at reduced coord.    0.2500    0.2500    0.0833
   Integrated=    1.9200E+02
 ETOT  2   1600.1819959805     2.888E+03 4.747E-01 3.279E+08
 scprqt: <Vxc>= -2.7758171E-01 hartree

 Pulay update with  1 previous iterations:
 mixing of old trial potential: alpha(m:m-4)=  0.158      0.842
 scfcv_core: previous iteration took 01:29 [minutes]

 ITER STEP NUMBER     3
 vtorho: nnsclo_now = 1, note that nnsclo, dbl_nnsclo, istep= 0 0 3
 Total charge density [el/Bohr^3]
      Maximum=    5.3879E+00  at reduced coord.    0.0000    0.9444    0.7448
      Minimum=    1.4226E-04  at reduced coord.    0.0278    0.0556    0.0677
   Integrated=    1.9200E+02
 ETOT  3  -1002.9826052874    -2.603E+03 1.602E+00 4.234E+07
 scprqt: <Vxc>= -2.9539248E-01 hartree

 Pulay update with  2 previous iterations:
 mixing of old trial potential: alpha(m:m-4)=  0.683     -0.162      0.479
 scfcv_core: previous iteration took 44.78 [s]

 ITER STEP NUMBER     4
 vtorho: nnsclo_now = 1, note that nnsclo, dbl_nnsclo, istep= 0 0 4
 Total charge density [el/Bohr^3]
      Maximum=    4.6516E+00  at reduced coord.    0.0000    0.9444    0.7448
      Minimum=    4.2588E-05  at reduced coord.    0.0278    0.0000    0.0365
   Integrated=    1.9200E+02
 ETOT  4  -1440.3654637225    -4.374E+02 5.470E-01 2.156E+05
 scprqt: <Vxc>= -2.8821122E-01 hartree

 Pulay update with  3 previous iterations:
 mixing of old trial potential: alpha(m:m-4)=  0.454      0.196     -0.172E-01  0.367
 scfcv_core: previous iteration took 44.91 [s]

 ITER STEP NUMBER     5
 vtorho: nnsclo_now = 1, note that nnsclo, dbl_nnsclo, istep= 0 0 5
 Total charge density [el/Bohr^3]
      Maximum=    4.3907E+00  at reduced coord.    0.0000    0.9444    0.7448
      Minimum=    9.7092E-06  at reduced coord.    0.3333    0.1667    0.0000
   Integrated=    1.9200E+02
 ETOT  5  -1450.7145799220    -1.035E+01 4.777E-02 2.309E+04
 scprqt: <Vxc>= -2.8104858E-01 hartree

 Pulay update with  4 previous iterations:
 mixing of old trial potential: alpha(m:m-4)=  0.557      0.946E-01  0.485E-01  0.286E-01  0.271
 scfcv_core: previous iteration took 44.81 [s]

 ITER STEP NUMBER     6
 vtorho: nnsclo_now = 1, note that nnsclo, dbl_nnsclo, istep= 0 0 6
 Total charge density [el/Bohr^3]
      Maximum=    4.3430E+00  at reduced coord.    0.0000    0.9444    0.7448
      Minimum=    7.6322E-06  at reduced coord.    0.1944    0.3056    0.0000
   Integrated=    1.9200E+02
 ETOT  6  -1450.9920405563    -2.775E-01 1.731E-02 5.147E+04
 scprqt: <Vxc>= -2.8325980E-01 hartree

 Pulay update with  5 previous iterations:
 mixing of old trial potential: alpha(m:m-4)=   1.19     -0.229     -0.950E-01 -0.649E-01  0.399E-01
 scfcv_core: previous iteration took 45.12 [s]

 ITER STEP NUMBER     7
 vtorho: nnsclo_now = 1, note that nnsclo, dbl_nnsclo, istep= 0 0 7
 Total charge density [el/Bohr^3]
      Maximum=    4.2717E+00  at reduced coord.    0.0000    0.9444    0.7448
      Minimum=    7.5231E-06  at reduced coord.    0.3333    0.1667    0.0000
   Integrated=    1.9200E+02
 ETOT  7  -1449.1675516089     1.824E+00 2.869E-02 3.506E+05
 scprqt: <Vxc>= -2.8669379E-01 hartree

 Pulay update with  6 previous iterations:
 mixing of old trial potential: alpha(m:m-4)=  0.213      0.802     -0.993E-01 -0.488E-01 -0.569E-01
 scfcv_core: previous iteration took 44.62 [s]

 ITER STEP NUMBER     8
 vtorho: nnsclo_now = 1, note that nnsclo, dbl_nnsclo, istep= 0 0 8
 Total charge density [el/Bohr^3]
      Maximum=    4.2660E+00  at reduced coord.    0.0000    0.9444    0.7448
      Minimum=    7.3965E-06  at reduced coord.    0.1944    0.3056    0.0000
   Integrated=    1.9200E+02
 ETOT  8  -1449.7740040148    -6.065E-01 8.088E-03 2.777E+05
 scprqt: <Vxc>= -2.8674499E-01 hartree

 Pulay update with  7 previous iterations:
 mixing of old trial potential: alpha(m:m-4)=   1.18     -0.416      0.190     -0.403E-01 -0.188E-01
 scfcv_core: previous iteration took 45.15 [s]

 ITER STEP NUMBER     9
 vtorho: nnsclo_now = 1, note that nnsclo, dbl_nnsclo, istep= 0 0 9
 Total charge density [el/Bohr^3]
      Maximum=    4.2273E+00  at reduced coord.    0.0000    0.9444    0.7448
      Minimum=    7.3882E-06  at reduced coord.    0.3333    0.1667    0.0000
   Integrated=    1.9200E+02
 ETOT  9  -1450.6151087270    -8.411E-01 1.691E-03 2.089E+05
 scprqt: <Vxc>= -2.8799010E-01 hartree

 Pulay update with  7 previous iterations:
 mixing of old trial potential: alpha(m:m-4)=   1.43      0.785     -0.820     -0.272     -0.255E-01
 scfcv_core: previous iteration took 44.80 [s]

 ITER STEP NUMBER    10
 vtorho: nnsclo_now = 1, note that nnsclo, dbl_nnsclo, istep= 0 0 10
 Total charge density [el/Bohr^3]
      Maximum=    4.1008E+00  at reduced coord.    0.0000    0.9444    0.7448
      Minimum=    7.6106E-06  at reduced coord.    0.3333    0.1667    0.0000
   Integrated=    1.9200E+02
 ETOT 10  -1451.4207880441    -8.057E-01 1.265E-02 1.682E+05
 scprqt: <Vxc>= -2.9233070E-01 hartree

 Pulay update with  7 previous iterations:
 mixing of old trial potential: alpha(m:m-4)=  0.497      0.445      0.867     -0.672     -0.135
 scfcv_core: previous iteration took 44.32 [s]

 ITER STEP NUMBER    11
 vtorho: nnsclo_now = 1, note that nnsclo, dbl_nnsclo, istep= 0 0 11
 Total charge density [el/Bohr^3]
      Maximum=    4.1032E+00  at reduced coord.    0.0000    0.9444    0.7448
      Minimum=    7.4588E-06  at reduced coord.    0.3333    0.1667    0.0000
   Integrated=    1.9200E+02
 ETOT 11  -1452.3329756828    -9.122E-01 2.297E-03 6.634E+04
 scprqt: <Vxc>= -2.9182999E-01 hartree

 Pulay update with  7 previous iterations:
 mixing of old trial potential: alpha(m:m-4)=   2.45     -0.976     -0.885      0.471     -0.162
 scfcv_core: previous iteration took 44.89 [s]

 ITER STEP NUMBER    12
 vtorho: nnsclo_now = 1, note that nnsclo, dbl_nnsclo, istep= 0 0 12
 Total charge density [el/Bohr^3]
      Maximum=    4.0988E+00  at reduced coord.    0.0000    0.9444    0.7448
      Minimum=    7.7669E-06  at reduced coord.    0.3333    0.1667    0.0000
   Integrated=    1.9200E+02
 ETOT 12  -1452.9320980110    -5.991E-01 7.824E-03 1.981E+02
 scprqt: <Vxc>= -2.9106864E-01 hartree

 Pulay update with  7 previous iterations:
 mixing of old trial potential: alpha(m:m-4)=  0.580      0.866     -0.240     -0.502      0.255
 scfcv_core: previous iteration took 44.77 [s]

 ITER STEP NUMBER    13
 vtorho: nnsclo_now = 1, note that nnsclo, dbl_nnsclo, istep= 0 0 13
 Total charge density [el/Bohr^3]
      Maximum=    4.1086E+00  at reduced coord.    0.0000    0.9444    0.7448
      Minimum=    7.7810E-06  at reduced coord.    0.3333    0.1667    0.0000
   Integrated=    1.9200E+02
 ETOT 13  -1452.9310138377     1.084E-03 2.195E-03 1.271E+03
 scprqt: <Vxc>= -2.9141949E-01 hartree

 Pulay update with  7 previous iterations:
 mixing of old trial potential: alpha(m:m-4)=   1.00     -0.693E-01  0.467E-01  0.128     -0.202
 scfcv_core: previous iteration took 44.92 [s]

 ITER STEP NUMBER    14
 vtorho: nnsclo_now = 1, note that nnsclo, dbl_nnsclo, istep= 0 0 14
 Total charge density [el/Bohr^3]
      Maximum=    4.1034E+00  at reduced coord.    0.0000    0.9444    0.7448
      Minimum=    7.8923E-06  at reduced coord.    0.3333    0.1667    0.0000
   Integrated=    1.9200E+02
 ETOT 14  -1452.9364534920    -5.440E-03 2.472E-03 5.693E+02
 scprqt: <Vxc>= -2.9151144E-01 hartree

 Pulay update with  7 previous iterations:
 mixing of old trial potential: alpha(m:m-4)=  0.995      0.223     -0.169     -0.162      0.140
 scfcv_core: previous iteration took 44.82 [s]

 ITER STEP NUMBER    15
 vtorho: nnsclo_now = 1, note that nnsclo, dbl_nnsclo, istep= 0 0 15
 Total charge density [el/Bohr^3]
      Maximum=    4.1025E+00  at reduced coord.    0.0000    0.9444    0.7448
      Minimum=    8.0350E-06  at reduced coord.    0.3333    0.1667    0.0000
   Integrated=    1.9200E+02
 ETOT 15  -1452.9386441668    -2.191E-03 2.885E-03 2.934E+02
 scprqt: <Vxc>= -2.9170350E-01 hartree

 Pulay update with  7 previous iterations:
 mixing of old trial potential: alpha(m:m-4)=   1.77     -0.903     -0.104      0.218      0.778E-01
 scfcv_core: previous iteration took 44.95 [s]

 ITER STEP NUMBER    16
 vtorho: nnsclo_now = 1, note that nnsclo, dbl_nnsclo, istep= 0 0 16
 Total charge density [el/Bohr^3]
      Maximum=    4.1026E+00  at reduced coord.    0.0000    0.9444    0.7448
      Minimum=    8.1939E-06  at reduced coord.    0.3333    0.1667    0.0000
   Integrated=    1.9200E+02
 ETOT 16  -1452.9403839796    -1.740E-03 2.729E-03 2.884E+01
 scprqt: <Vxc>= -2.9183994E-01 hartree

 Pulay update with  7 previous iterations:
 mixing of old trial potential: alpha(m:m-4)=   1.07      0.843E-01 -0.126     -0.416E-01  0.303E-01
 scfcv_core: previous iteration took 44.93 [s]

 ITER STEP NUMBER    17
 vtorho: nnsclo_now = 1, note that nnsclo, dbl_nnsclo, istep= 0 0 17
 Total charge density [el/Bohr^3]
      Maximum=    4.1019E+00  at reduced coord.    0.0000    0.9444    0.7448
      Minimum=    8.2854E-06  at reduced coord.    0.3333    0.1667    0.0000
   Integrated=    1.9200E+02
 ETOT 17  -1452.9404604044    -7.642E-05 6.558E-03 2.192E+01
 scprqt: <Vxc>= -2.9187271E-01 hartree

[...]
                       2.000000  2.000000  2.000000  2.000000  2.000000  2.000000
                       2.000000  2.000000  2.000000  2.000000  2.000000  2.000000
                       2.000000  2.000000  2.000000  2.000000  2.000000  2.000000
                       2.000000  2.000000  2.000000  2.000000  2.000000  2.000000
                       2.000000  2.000000  2.000000  2.000000  2.000000  2.000000
                       2.000000  2.000000  2.000000  2.000000  2.000000  2.000000
                       2.000000  2.000000  2.000000  2.000000  2.000000  2.000000
                       2.000000  2.000000  2.000000  2.000000  2.000000  2.000000
                       2.000000  2.000000  2.000000  2.000000  2.000000  2.000000
                       2.000000  2.000000  2.000000  2.000000  2.000000  2.000000
                       2.000000  2.000000  2.000000  2.000000  2.000000  2.000000
                       2.000000  2.000000  2.000000  2.000000  2.000000  2.000000
                       2.000000  2.000000  2.000000  2.000000  2.000000  2.000000
                       2.000000  2.000000  2.000000  2.000000  2.000000  2.000000
                       2.000000  2.000000  2.000000  2.000000  2.000000  2.000000
                       0.000000  0.000000  0.000000  0.000000  0.000000  0.000000
                       0.000000  0.000000  0.000000  0.000000  0.000000  0.000000
                       0.000000  0.000000  0.000000  0.000000  0.000000  0.000000
                       0.000000  0.000000  0.000000  0.000000  0.000000  0.000000
                       0.000000  0.000000  0.000000  0.000000  0.000000  0.000000
                       0.000000  0.000000  0.000000  0.000000  0.000000  0.000000
                       0.000000  0.000000  0.000000  0.000000  0.000000  0.000000
                       0.000000  0.000000  0.000000  0.000000  0.000000  0.000000
                       0.000000  0.000000  0.000000  0.000000  0.000000  0.000000
                       0.000000  0.000000  0.000000  0.000000  0.000000  0.000000
                       0.000000  0.000000  0.000000  0.000000  0.000000  0.000000
                       0.000000  0.000000  0.000000  0.000000  0.000000  0.000000
                       0.000000  0.000000  0.000000  0.000000  0.000000  0.000000
                       0.000000  0.000000  0.000000  0.000000  0.000000  0.000000
                       0.000000  0.000000  0.000000  0.000000  0.000000  0.000000
                       0.000000  0.000000  0.000000  0.000000  0.000000  0.000000
                       0.000000  0.000000  0.000000  0.000000  0.000000  0.000000
                       0.000000  0.000000  0.000000  0.000000  0.000000  0.000000
                       0.000000  0.000000  0.000000  0.000000  0.000000  0.000000
              occ6     2.000000  2.000000  2.000000  2.000000  2.000000  2.000000
                       2.000000  2.000000  2.000000  2.000000  2.000000  2.000000
                       2.000000  2.000000  2.000000  2.000000  2.000000  2.000000
                       2.000000  2.000000  2.000000  2.000000  2.000000  2.000000
                       2.000000  2.000000  2.000000  2.000000  2.000000  2.000000
                       2.000000  2.000000  2.000000  2.000000  2.000000  2.000000
                       2.000000  2.000000  2.000000  2.000000  2.000000  2.000000
                       2.000000  2.000000  2.000000  2.000000  2.000000  2.000000
                       2.000000  2.000000  2.000000  2.000000  2.000000  2.000000
                       2.000000  2.000000  2.000000  2.000000  2.000000  2.000000
                       2.000000  2.000000  2.000000  2.000000  2.000000  2.000000
                       2.000000  2.000000  2.000000  2.000000  2.000000  2.000000
                       2.000000  2.000000  2.000000  2.000000  2.000000  2.000000
                       2.000000  2.000000  2.000000  2.000000  2.000000  2.000000
                       2.000000  2.000000  2.000000  2.000000  2.000000  2.000000
                       2.000000  2.000000  2.000000  2.000000  2.000000  2.000000
                       0.000000  0.000000  0.000000  0.000000  0.000000  0.000000
                       0.000000  0.000000  0.000000  0.000000  0.000000  0.000000
                       0.000000  0.000000  0.000000  0.000000  0.000000  0.000000
                       0.000000  0.000000  0.000000  0.000000  0.000000  0.000000
                       0.000000  0.000000  0.000000  0.000000  0.000000  0.000000
                       0.000000  0.000000  0.000000  0.000000  0.000000  0.000000
                       0.000000  0.000000  0.000000  0.000000  0.000000  0.000000
                       0.000000  0.000000  0.000000  0.000000  0.000000  0.000000
                       0.000000  0.000000  0.000000  0.000000  0.000000  0.000000
                       0.000000  0.000000  0.000000  0.000000  0.000000  0.000000
                       0.000000  0.000000  0.000000  0.000000  0.000000  0.000000
                       0.000000  0.000000  0.000000  0.000000  0.000000  0.000000
                       0.000000  0.000000  0.000000  0.000000  0.000000  0.000000
                       0.000000  0.000000  0.000000  0.000000  0.000000  0.000000
                       0.000000  0.000000  0.000000  0.000000  0.000000  0.000000
                       0.000000  0.000000  0.000000  0.000000  0.000000  0.000000
                       0.000000  0.000000  0.000000  0.000000  0.000000  0.000000
                       0.000000  0.000000  0.000000  0.000000  0.000000  0.000000
                       0.000000  0.000000  0.000000  0.000000  0.000000  0.000000
        optdriver1          0
        optdriver2          0
        optdriver3          0
        optdriver4          1
        optdriver5          1
        optdriver6          1
            prtwf1          1
            prtwf2          1
            prtwf3          1
            prtwf4          3
            prtwf5          3
            prtwf6          3
            rfdir1          0       0       0
            rfdir2          0       0       0
            rfdir3          0       0       0
            rfdir4          1       0       0
            rfdir5          0       1       0
            rfdir6          0       0       1
           rfelfd1          0
           rfelfd2          0
           rfelfd3          0
           rfelfd4          2
           rfelfd5          2
           rfelfd6          2
            rprim      1.0000000000E+00  0.0000000000E+00  0.0000000000E+00
                       0.0000000000E+00  1.0000000000E+00  0.0000000000E+00
                       0.0000000000E+00  0.0000000000E+00  5.7277782079E+00
           shiftk      5.00000000E-01  5.00000000E-01  5.00000000E-01
          spgroup          99
           strten1     1.5047925504E-02  1.5047925504E-02  1.4908764079E-02
                       0.0000000000E+00  0.0000000000E+00  0.0000000000E+00
           symrel      1  0  0   0  1  0   0  0  1       1  0  0   0 -1  0   0  0  1
                      -1  0  0   0 -1  0   0  0  1      -1  0  0   0  1  0   0  0  1
                       0  1  0   1  0  0   0  0  1       0  1  0  -1  0  0   0  0  1
                       0 -1  0  -1  0  0   0  0  1       0 -1  0   1  0  0   0  0  1
            tnons      0.0000000  0.0000000  0.0000000     0.0000000  0.0000000  0.0000000
                       0.0000000  0.0000000  0.0000000     0.0000000  0.0000000  0.0000000
                       0.5000000  0.5000000  0.0000000     0.5000000  0.5000000  0.0000000
                       0.5000000  0.5000000  0.0000000     0.5000000  0.5000000  0.0000000
           tolwfr      1.00000000E-20
            typat      1  1  1  1  2  2  2  2  2  2  3  3
           vdw_xc           5
              wtk1       0.04000    0.08000    0.08000    0.08000    0.08000    0.04000
                         0.08000    0.08000    0.08000    0.04000    0.08000    0.08000
                         0.04000    0.08000    0.04000
              wtk2       0.04000    0.08000    0.08000    0.08000    0.08000    0.04000
                         0.08000    0.08000    0.08000    0.04000    0.08000    0.08000
                         0.04000    0.08000    0.04000
              wtk3       0.01000    0.01000    0.01000    0.01000    0.01000    0.01000
                         0.01000    0.01000    0.01000    0.01000    0.01000    0.01000
                         0.01000    0.01000    0.01000    0.01000    0.01000    0.01000
                         0.01000    0.01000    0.01000    0.01000    0.01000    0.01000
                         0.01000    0.01000    0.01000    0.01000    0.01000    0.01000
                         0.01000    0.01000    0.01000    0.01000    0.01000    0.01000
                         0.01000    0.01000    0.01000    0.01000    0.01000    0.01000
                         0.01000    0.01000    0.01000    0.01000    0.01000    0.01000
                         0.01000    0.01000
              wtk4       0.01000    0.01000    0.01000    0.01000    0.01000    0.01000
                         0.01000    0.01000    0.01000    0.01000    0.01000    0.01000
                         0.01000    0.01000    0.01000    0.01000    0.01000    0.01000
                         0.01000    0.01000    0.01000    0.01000    0.01000    0.01000
                         0.01000    0.01000    0.01000    0.01000    0.01000    0.01000
                         0.01000    0.01000    0.01000    0.01000    0.01000    0.01000
                         0.01000    0.01000    0.01000    0.01000    0.01000    0.01000
                         0.01000    0.01000    0.01000    0.01000    0.01000    0.01000
                         0.01000    0.01000
              wtk5       0.01000    0.01000    0.01000    0.01000    0.01000    0.01000
                         0.01000    0.01000    0.01000    0.01000    0.01000    0.01000
                         0.01000    0.01000    0.01000    0.01000    0.01000    0.01000
                         0.01000    0.01000    0.01000    0.01000    0.01000    0.01000
                         0.01000    0.01000    0.01000    0.01000    0.01000    0.01000
                         0.01000    0.01000    0.01000    0.01000    0.01000    0.01000
                         0.01000    0.01000    0.01000    0.01000    0.01000    0.01000
                         0.01000    0.01000    0.01000    0.01000    0.01000    0.01000
                         0.01000    0.01000
              wtk6       0.01000    0.01000    0.01000    0.01000    0.01000    0.01000
                         0.01000    0.01000    0.01000    0.01000    0.01000    0.01000
                         0.01000    0.01000    0.01000    0.01000    0.01000    0.01000
                         0.01000    0.01000    0.01000    0.01000    0.01000    0.01000
                         0.01000    0.01000    0.01000    0.01000    0.01000    0.01000
                         0.01000    0.01000    0.01000    0.01000    0.01000    0.01000
                         0.01000    0.01000    0.01000    0.01000    0.01000    0.01000
                         0.01000    0.01000    0.01000    0.01000    0.01000    0.01000
                         0.01000    0.01000
                       outvars : Printing only first  50 k-points.
           xangst      2.0538509643E+00  0.0000000000E+00  4.6664740448E+00
                       0.0000000000E+00  2.0538509643E+00  7.4160979462E+00
                       2.0538509643E+00  0.0000000000E+00  1.0102196232E+01
                       0.0000000000E+00  2.0538509643E+00  1.2851820134E+01
                       0.0000000000E+00  2.0538509643E+00  4.6982368524E+00
                       2.0538509643E+00  0.0000000000E+00  7.3843351386E+00
                       0.0000000000E+00  2.0538509643E+00  1.0133959040E+01
                       2.0538509643E+00  0.0000000000E+00  1.2820057326E+01
                       2.0538509643E+00  0.0000000000E+00  1.5871522011E+01
                       0.0000000000E+00  2.0538509643E+00  1.8861531546E+01
                       2.0538509643E+00  2.0538509643E+00  1.7366538543E+01
                       0.0000000000E+00  0.0000000000E+00  1.7366538543E+01
            xcart      3.8812158402E+00  0.0000000000E+00  8.8183579509E+00
                       0.0000000000E+00  3.8812158402E+00  1.4014394093E+01
                       3.8812158402E+00  0.0000000000E+00  1.9090384220E+01
                       0.0000000000E+00  3.8812158402E+00  2.4286420362E+01
                       0.0000000000E+00  3.8812158402E+00  8.8783809584E+00
                       3.8812158402E+00  0.0000000000E+00  1.3954371085E+01
                       0.0000000000E+00  3.8812158402E+00  1.9150407227E+01
                       3.8812158402E+00  0.0000000000E+00  2.4226397354E+01
                       3.8812158402E+00  0.0000000000E+00  2.9992829913E+01
                       0.0000000000E+00  3.8812158402E+00  3.5643129068E+01
                       3.8812158402E+00  3.8812158402E+00  3.2818001722E+01
                       0.0000000000E+00  0.0000000000E+00  3.2818001722E+01
             xred      5.0000000000E-01  0.0000000000E+00  1.9833700000E-01
                       0.0000000000E+00  5.0000000000E-01  3.1520300000E-01
                       5.0000000000E-01  0.0000000000E+00  4.2936900000E-01
                       0.0000000000E+00  5.0000000000E-01  5.4623500000E-01
                       0.0000000000E+00  5.0000000000E-01  1.9968700000E-01
                       5.0000000000E-01  0.0000000000E+00  3.1385300000E-01
                       0.0000000000E+00  5.0000000000E-01  4.3071900000E-01
                       5.0000000000E-01  0.0000000000E+00  5.4488500000E-01
                       5.0000000000E-01  0.0000000000E+00  6.7458000000E-01
                       0.0000000000E+00  5.0000000000E-01  8.0166300000E-01
                       5.0000000000E-01  5.0000000000E-01  7.3812200000E-01
                       0.0000000000E+00  0.0000000000E+00  7.3812200000E-01
            znucl       50.00000   34.00000   30.00000

================================================================================
  

================================================================================

 Suggested references for the acknowledgment of ABINIT usage.

 The users of ABINIT have little formal obligations with respect to the ABINIT group
 (those specified in the GNU General Public License, http://www.gnu.org/copyleft/gpl.txt).
 However, it is common practice in the scientific literature,
 to acknowledge the efforts of people that have made the research possible.
 In this spirit, please find below suggested citations of work written by ABINIT developers,
 corresponding to implementations inside of ABINIT that you have used in the present run.
 Note also that it will be of great value to readers of publications presenting these results,
 to read papers enabling them to understand the theoretical formalism and details
 of the ABINIT implementation.
 For information on why they are suggested, see also https://docs.abinit.org/theory/acknowledgments.
-
- [1] The Abinit project: Impact, environment and recent developments.
- Computer Phys. Comm. 248, 107042 (2020).
- X.Gonze, B. Amadon, G. Antonius, F.Arnardi, L.Baguet, J.-M.Beuken,
- J.Bieder, F.Bottin, J.Bouchet, E.Bousquet, N.Brouwer, F.Bruneval,
- G.Brunin, T.Cavignac, J.-B. Charraud, Wei Chen, M.Cote, S.Cottenier,
- J.Denier, G.Geneste, Ph.Ghosez, M.Giantomassi, Y.Gillet, O.Gingras,
- D.R.Hamann, G.Hautier, Xu He, N.Helbig, N.Holzwarth, Y.Jia, F.Jollet,
- W.Lafargue-Dit-Hauret, K.Lejaeghere, M.A.L.Marques, A.Martin, C.Martins,
- H.P.C. Miranda, F.Naccarato, K. Persson, G.Petretto, V.Planes, Y.Pouillon,
- S.Prokhorenko, F.Ricci, G.-M.Rignanese, A.H.Romero, M.M.Schmitt, M.Torrent,
- M.J.van Setten, B.Van Troeye, M.J.Verstraete, G.Zerah and J.W.Zwanzig
- Comment: the fifth generic paper describing the ABINIT project.
- Note that a version of this paper, that is not formatted for Computer Phys. Comm. 
- is available at https://www.abinit.org/sites/default/files/ABINIT20.pdf .
- The licence allows the authors to put it on the Web.
- DOI and bibtex: see https://docs.abinit.org/theory/bibliography/#gonze2020
-
- [2] First-principles responses of solids to atomic displacements and homogeneous electric fields:,
- implementation of a conjugate-gradient algorithm. X. Gonze, Phys. Rev. B55, 10337 (1997).
- Comment: Non-vanishing rfphon and/or rfelfd, in the norm-conserving case.
- DOI and bibtex: see https://docs.abinit.org/theory/bibliography/#gonze1997
-
- [3] Dynamical matrices, Born effective charges, dielectric permittivity tensors, and ,
- interatomic force constants from density-functional perturbation theory,
- X. Gonze and C. Lee, Phys. Rev. B55, 10355 (1997).
- Comment: Non-vanishing rfphon and/or rfelfd, in the norm-conserving case.
- DOI and bibtex: see https://docs.abinit.org/theory/bibliography/#gonze1997a
-
- [4] Optimized norm-conserving Vanderbilt pseudopotentials.
- D.R. Hamann, Phys. Rev. B 88, 085117 (2013).
- Comment: Some pseudopotential generated using the ONCVPSP code were used.
- DOI and bibtex: see https://docs.abinit.org/theory/bibliography/#hamann2013
-
- [5] ABINIT: Overview, and focus on selected capabilities
- J. Chem. Phys. 152, 124102 (2020).
- A. Romero, D.C. Allan, B. Amadon, G. Antonius, T. Applencourt, L.Baguet,
- J.Bieder, F.Bottin, J.Bouchet, E.Bousquet, F.Bruneval,
- G.Brunin, D.Caliste, M.Cote,
- J.Denier, C. Dreyer, Ph.Ghosez, M.Giantomassi, Y.Gillet, O.Gingras,
- D.R.Hamann, G.Hautier, F.Jollet, G. Jomard,
- A.Martin, 
- H.P.C. Miranda, F.Naccarato, G.Petretto, N.A. Pike, V.Planes,
- S.Prokhorenko, T. Rangel, F.Ricci, G.-M.Rignanese, M.Royo, M.Stengel, M.Torrent,
- M.J.van Setten, B.Van Troeye, M.J.Verstraete, J.Wiktor, J.W.Zwanziger, and X.Gonze.
- Comment: a global overview of ABINIT, with focus on selected capabilities .
- Note that a version of this paper, that is not formatted for J. Chem. Phys 
- is available at https://www.abinit.org/sites/default/files/ABINIT20_JPC.pdf .
- The licence allows the authors to put it on the Web.
- DOI and bibtex: see https://docs.abinit.org/theory/bibliography/#romero2020
-
- [6] Recent developments in the ABINIT software package.
- Computer Phys. Comm. 205, 106 (2016).
- X.Gonze, F.Jollet, F.Abreu Araujo, D.Adams, B.Amadon, T.Applencourt,
- C.Audouze, J.-M.Beuken, J.Bieder, A.Bokhanchuk, E.Bousquet, F.Bruneval
- D.Caliste, M.Cote, F.Dahm, F.Da Pieve, M.Delaveau, M.Di Gennaro,
- B.Dorado, C.Espejo, G.Geneste, L.Genovese, A.Gerossier, M.Giantomassi,
- Y.Gillet, D.R.Hamann, L.He, G.Jomard, J.Laflamme Janssen, S.Le Roux,
- A.Levitt, A.Lherbier, F.Liu, I.Lukacevic, A.Martin, C.Martins,
- M.J.T.Oliveira, S.Ponce, Y.Pouillon, T.Rangel, G.-M.Rignanese,
- A.H.Romero, B.Rousseau, O.Rubel, A.A.Shukri, M.Stankovski, M.Torrent,
- M.J.Van Setten, B.Van Troeye, M.J.Verstraete, D.Waroquier, J.Wiktor,
- B.Xu, A.Zhou, J.W.Zwanziger.
- Comment: the fourth generic paper describing the ABINIT project.
- Note that a version of this paper, that is not formatted for Computer Phys. Comm. 
- is available at https://www.abinit.org/sites/default/files/ABINIT16.pdf .
- The licence allows the authors to put it on the Web.
- DOI and bibtex: see https://docs.abinit.org/theory/bibliography/#gonze2016
 Proc.   0 individual time (sec): cpu=       8219.5  wall=       8229.3

 Calculation completed.
.Delivered   6 WARNINGs and   0 COMMENTs to log file.

--- !FinalSummary
program: abinit
version: 9.2.2
start_datetime: Sun Mar 17 00:10:58 2024
end_datetime: Sun Mar 17 02:28:08 2024
overall_cpu_time:       49318.0
overall_wall_time:       49375.3
exit_requested_by_user: no 
timelimit: 0
pseudos: 
    Sn  : c918e999fc214fef37654f9ff7d5f03d
    Se  : f801923bd422df98a30264e8ccc86374
    Zn  : 80c9b4d1484b64588a366a4998a7c40d
usepaw: 0
mpi_procs: 6
omp_threads: 1
num_warnings: 6
num_comments: 0
...
