
.Version 9.2.2 of ABINIT 
.(MPI version, prepared for a x86_64_linux_gnu9.3 computer) 

.Copyright (C) 1998-2020 ABINIT group . 
 ABINIT comes with ABSOLUTELY NO WARRANTY.
 It is free software, and you are welcome to redistribute it
 under certain conditions (GNU General Public License,
 see ~abinit/COPYING or http://www.gnu.org/copyleft/gpl.txt).

 ABINIT is a project of the Universite Catholique de Louvain,
 Corning Inc. and other collaborators, see ~abinit/doc/developers/contributors.txt .
 Please read https://docs.abinit.org/theory/acknowledgments for suggested
 acknowledgments of the ABINIT effort.
 For more information, see https://www.abinit.org .

.Starting date : Thu 29 Feb 2024.
- ( at 08h21 )
  
- The starting date is more than 3 years after the initial release
- of this version of ABINIT, namely Nov 2020.
- This version of ABINIT is not supported anymore.
- Action: please, switch to a more recent version of ABINIT.
- input  file    -> Cs2TiI6.in
- output file    -> Cs2TiI6.out
- root for input  files -> Cs2TiI6i
- root for output files -> Cs2TiI6o


 Symmetries : space group P4 m m (# 99); Bravais tP (primitive tetrag.)
================================================================================
 Values of the parameters that define the memory need of the present run
     intxc =       0    ionmov =       0      iscf =      17    lmnmax =       6
     lnmax =       6     mgfft =     256  mpssoang =       3    mqgrid =   12553
     natom =      18  nloc_mem =       1    nspden =       1   nspinor =       1
    nsppol =       1      nsym =       8    n1xccc =    2501    ntypat =       2
    occopt =       1   xclevel =       2
-    mband =         138        mffmem =           1         mkmem =           2
       mpw =       18104          nfft =      331776          nkpt =          10
================================================================================
P This job should need less than                     194.739 Mbytes of memory.
  Rough estimation (10% accuracy) of disk space for files :
_ WF disk file :    381.220 Mbytes ; DEN or POT disk file :      2.533 Mbytes.
================================================================================

--------------------------------------------------------------------------------
------------- Echo of variables that govern the present computation ------------
--------------------------------------------------------------------------------
-
- outvars: echo of selected default values                                      
-   iomode0 =  0 , fftalg0 =112 , wfoptalg0 =  0
-
- outvars: echo of global parameters not present in the input file              
-  max_nthreads =    0
-
 -outvars: echo values of preprocessed input variables --------
            acell      7.7624316804E+00  7.7624316804E+00  7.7624316804E+00 Bohr
              amu      1.18710000E+02  7.89600000E+01
           diemac      1.20000000E+01
             ecut      2.25000000E+01 Hartree
-          fftalg         112
             iscf          17
              ixc          11
              kpt      6.25000000E-02  6.25000000E-02  5.00000000E-01
                       1.87500000E-01  6.25000000E-02  5.00000000E-01
                       3.12500000E-01  6.25000000E-02  5.00000000E-01
                       4.37500000E-01  6.25000000E-02  5.00000000E-01
                       1.87500000E-01  1.87500000E-01  5.00000000E-01
                       3.12500000E-01  1.87500000E-01  5.00000000E-01
                       4.37500000E-01  1.87500000E-01  5.00000000E-01
                       3.12500000E-01  3.12500000E-01  5.00000000E-01
                       4.37500000E-01  3.12500000E-01  5.00000000E-01
                       4.37500000E-01  4.37500000E-01  5.00000000E-01
         kptrlatt        8    0    0      0    8    0      0    0    1
          kptrlen      6.20994534E+01
P           mkmem           2
            natom          18
            nband         138
            ngfft          36      36     256
             nkpt          10
            nstep         150
             nsym           8
           ntypat           2
              occ      2.000000  2.000000  2.000000  2.000000  2.000000  2.000000
                       2.000000  2.000000  2.000000  2.000000  2.000000  2.000000
                       2.000000  2.000000  2.000000  2.000000  2.000000  2.000000
                       2.000000  2.000000  2.000000  2.000000  2.000000  2.000000
                       2.000000  2.000000  2.000000  2.000000  2.000000  2.000000
                       2.000000  2.000000  2.000000  2.000000  2.000000  2.000000
                       2.000000  2.000000  2.000000  2.000000  2.000000  2.000000
                       2.000000  2.000000  2.000000  2.000000  2.000000  2.000000
                       2.000000  2.000000  2.000000  2.000000  2.000000  2.000000
                       2.000000  2.000000  2.000000  2.000000  2.000000  2.000000
                       2.000000  2.000000  2.000000  2.000000  2.000000  2.000000
                       2.000000  2.000000  2.000000  2.000000  2.000000  2.000000
                       2.000000  2.000000  2.000000  2.000000  2.000000  2.000000
                       2.000000  2.000000  2.000000  2.000000  2.000000  2.000000
                       2.000000  2.000000  2.000000  2.000000  2.000000  2.000000
                       2.000000  2.000000  2.000000  2.000000  2.000000  2.000000
                       2.000000  2.000000  2.000000  2.000000  2.000000  2.000000
                       2.000000  2.000000  2.000000  2.000000  2.000000  2.000000
                       2.000000  2.000000  2.000000  2.000000  2.000000  2.000000
                       2.000000  2.000000  2.000000  2.000000  2.000000  2.000000
                       2.000000  2.000000  2.000000  2.000000  2.000000  2.000000
                       2.000000  2.000000  2.000000  2.000000  2.000000  2.000000
                       2.000000  2.000000  2.000000  0.000000  0.000000  0.000000
           prtcif           1
            rprim      1.0000000000E+00  0.0000000000E+00  0.0000000000E+00
                       0.0000000000E+00  1.0000000000E+00  0.0000000000E+00
                       0.0000000000E+00  0.0000000000E+00  7.5729970188E+00
           shiftk      5.00000000E-01  5.00000000E-01  5.00000000E-01
          spgroup          99
           symrel      1  0  0   0  1  0   0  0  1       1  0  0   0 -1  0   0  0  1
                      -1  0  0   0 -1  0   0  0  1      -1  0  0   0  1  0   0  0  1
                       0  1  0   1  0  0   0  0  1       0  1  0  -1  0  0   0  0  1
                       0 -1  0  -1  0  0   0  0  1       0 -1  0   1  0  0   0  0  1
            tnons      0.0000000  0.0000000  0.0000000     0.0000000  0.0000000  0.0000000
                      -0.0000000  0.0000000  0.0000000    -0.0000000  0.0000000  0.0000000
                       0.5000000  0.5000000  0.0000000     0.5000000  0.5000000  0.0000000
                       0.5000000  0.5000000  0.0000000     0.5000000  0.5000000  0.0000000
           toldfe      1.00000000E-06 Hartree
            typat      1  1  1  1  1  1  1  1  1  2  2  2  2  2  2  2  2  2
           vdw_xc           5
              wtk        0.06250    0.12500    0.12500    0.12500    0.06250    0.12500
                         0.12500    0.06250    0.12500    0.06250
           xangst      2.0538509643E+00  0.0000000000E+00  4.6664532449E+00
                       0.0000000000E+00  2.0538509643E+00  7.4160863946E+00
                       2.0538509643E+00  0.0000000000E+00  1.0102197795E+01
                       0.0000000000E+00  2.0538509643E+00  1.2851830945E+01
                       2.0538509643E+00  0.0000000000E+00  1.5537911238E+01
                       0.0000000000E+00  2.0538509643E+00  1.8287544388E+01
                       2.0538509643E+00  0.0000000000E+00  2.0973655789E+01
                       0.0000000000E+00  2.0538509643E+00  2.3723288938E+01
                       2.0538509643E+00  0.0000000000E+00  2.6409369232E+01
                       0.0000000000E+00  2.0538509643E+00  4.6982452269E+00
                       2.0538509643E+00  0.0000000000E+00  7.3843255202E+00
                       0.0000000000E+00  2.0538509643E+00  1.0133958670E+01
                       2.0538509643E+00  0.0000000000E+00  1.2820070071E+01
                       0.0000000000E+00  2.0538509643E+00  1.5569703220E+01
                       2.0538509643E+00  0.0000000000E+00  1.8255783514E+01
                       0.0000000000E+00  2.0538509643E+00  2.1005416663E+01
                       2.0538509643E+00  0.0000000000E+00  2.3691528064E+01
                       0.0000000000E+00  2.0538509643E+00  2.6441161214E+01
            xcart      3.8812158402E+00  0.0000000000E+00  8.8183186449E+00
                       0.0000000000E+00  3.8812158402E+00  1.4014372264E+01
                       3.8812158402E+00  0.0000000000E+00  1.9090387174E+01
                       0.0000000000E+00  3.8812158402E+00  2.4286440792E+01
                       3.8812158402E+00  0.0000000000E+00  2.9362396918E+01
                       0.0000000000E+00  3.8812158402E+00  3.4558450536E+01
                       3.8812158402E+00  0.0000000000E+00  3.9634465446E+01
                       0.0000000000E+00  3.8812158402E+00  4.4830519065E+01
                       3.8812158402E+00  0.0000000000E+00  4.9906475190E+01
                       0.0000000000E+00  3.8812158402E+00  8.8783967840E+00
                       3.8812158402E+00  0.0000000000E+00  1.3954352909E+01
                       0.0000000000E+00  3.8812158402E+00  1.9150406528E+01
                       3.8812158402E+00  0.0000000000E+00  2.4226421438E+01
                       0.0000000000E+00  3.8812158402E+00  2.9422475057E+01
                       3.8812158402E+00  0.0000000000E+00  3.4498431182E+01
                       0.0000000000E+00  3.8812158402E+00  3.9694484801E+01
                       3.8812158402E+00  0.0000000000E+00  4.4770499711E+01
                       0.0000000000E+00  3.8812158402E+00  4.9966553329E+01
             xred      5.0000000000E-01  0.0000000000E+00  1.5001000000E-01
                       0.0000000000E+00  5.0000000000E-01  2.3840100000E-01
                       5.0000000000E-01  0.0000000000E+00  3.2475000000E-01
                       0.0000000000E+00  5.0000000000E-01  4.1314100000E-01
                       5.0000000000E-01  0.0000000000E+00  4.9948900000E-01
                       0.0000000000E+00  5.0000000000E-01  5.8788000000E-01
                       5.0000000000E-01  0.0000000000E+00  6.7422900000E-01
                       0.0000000000E+00  5.0000000000E-01  7.6262000000E-01
                       5.0000000000E-01  0.0000000000E+00  8.4896800000E-01
                       0.0000000000E+00  5.0000000000E-01  1.5103200000E-01
                       5.0000000000E-01  0.0000000000E+00  2.3738000000E-01
                       0.0000000000E+00  5.0000000000E-01  3.2577100000E-01
                       5.0000000000E-01  0.0000000000E+00  4.1212000000E-01
                       0.0000000000E+00  5.0000000000E-01  5.0051100000E-01
                       5.0000000000E-01  0.0000000000E+00  5.8685900000E-01
                       0.0000000000E+00  5.0000000000E-01  6.7525000000E-01
                       5.0000000000E-01  0.0000000000E+00  7.6159900000E-01
                       0.0000000000E+00  5.0000000000E-01  8.4999000000E-01
            znucl       50.00000   34.00000

================================================================================

 chkinp: Checking input parameters for consistency.

================================================================================
== DATASET  1 ==================================================================
-   mpi_nproc: 6, omp_nthreads: -1 (-1 if OMP is not activated)


--- !DatasetInfo
iteration_state: {dtset: 1, }
dimensions: {natom: 18, nkpt: 10, mband: 138, nsppol: 1, nspinor: 1, nspden: 1, mpw: 18104, }
cutoff_energies: {ecut:  22.5, pawecutdg:  -1.0, }
electrons: {nelect:   2.70000000E+02, charge:   0.00000000E+00, occopt:   1.00000000E+00, tsmear:   1.00000000E-02, }
meta: {optdriver: 0, ionmov: 0, optcell: 0, iscf: 17, paral_kgb: 0, }
...

 Exchange-correlation functional for the present dataset will be:
  GGA: Perdew-Burke-Ernzerhof functional - ixc=11
 Citation for XC functional:
  J.P.Perdew, K.Burke, M.Ernzerhof, PRL 77, 3865 (1996)

 Real(R)+Recip(G) space primitive vectors, cartesian coordinates (Bohr,Bohr^-1):
 R(1)=  7.7624317  0.0000000  0.0000000  G(1)=  0.1288256  0.0000000  0.0000000
 R(2)=  0.0000000  7.7624317  0.0000000  G(2)=  0.0000000  0.1288256  0.0000000
 R(3)=  0.0000000  0.0000000 58.7848720  G(3)=  0.0000000  0.0000000  0.0170112
 Unit cell volume ucvol=  3.5421028E+03 bohr^3
 Angles (23,13,12)=  9.00000000E+01  9.00000000E+01  9.00000000E+01 degrees

 getcut: wavevector=  0.0000  0.0000  0.0000  ngfft=  36  36 256
         ecut(hartree)=     22.500   => boxcut(ratio)=   2.03947

--- Pseudopotential description ------------------------------------------------
- pspini: atom type   1  psp file is ../../../Psps_for_tests/ATOMICDATA_NC/Sn.psp8
- pspatm: opening atomic psp file    ../../../Psps_for_tests/ATOMICDATA_NC/Sn.psp8
- Sn    ONCVPSP  r_core=  2.27  2.62  1.86
- 50.00000  14.00000    150810                znucl, zion, pspdat
    8   11    2    4       600   0.00000      pspcod,pspxc,lmax,lloc,mmax,r2well
    5.99000000000000    6.50000000000000    0.00000000000000   rchrg,fchrg,qchrg
     nproj     2     2     2
     extension_switch     1
  pspatm : epsatm=   32.65190642
         --- l  ekb(1:nproj) -->
             0    5.462393    0.682281
             1    4.443814    0.825686
             2   -5.382195   -1.704077
 pspatm: atomic psp has been read  and splines computed

- pspini: atom type   2  psp file is ../../../Psps_for_tests/ATOMICDATA_NC/Se.psp8
- pspatm: opening atomic psp file    ../../../Psps_for_tests/ATOMICDATA_NC/Se.psp8
- Se    ONCVPSP  r_core=  1.82  1.50  1.91
- 34.00000  16.00000    150729                znucl, zion, pspdat
    8   11    2    4       600   0.00000      pspcod,pspxc,lmax,lloc,mmax,r2well
    5.99000000000000    5.00000000000000    0.00000000000000   rchrg,fchrg,qchrg
     nproj     2     2     2
     extension_switch     1
  pspatm : epsatm=   29.53325930
         --- l  ekb(1:nproj) -->
             0    8.612261    0.939919
             1    6.984962    1.281898
             2   -9.322521   -3.856218
 pspatm: atomic psp has been read  and splines computed

   1.51109953E+05                                ecore*ucvol(ha*bohr**3)
--------------------------------------------------------------------------------

_setup2: Arith. and geom. avg. npw (full set) are   18056.000   18055.984

================================================================================

--- !BeginCycle
iteration_state: {dtset: 1, }
solver: {iscf: 17, nstep: 150, nline: 4, wfoptalg: 0, }
tolerances: {toldfe: 1.00E-06, }
...

     iter   Etot(hartree)      deltaE(h)  residm     nres2
 ETOT  1  -1761.6760350467    -1.762E+03 8.624E-01 3.506E+02
 ETOT  2  -1792.8932601710    -3.122E+01 4.083E-02 2.185E+02
 ETOT  3  -1793.1323603733    -2.391E-01 6.291E-01 5.997E+01
 ETOT  4  -1806.4091200612    -1.328E+01 6.695E-01 1.638E+02
 ETOT  5  -1789.4338969614     1.698E+01 5.196E-01 2.903E+01
 ETOT  6  -1790.5736624173    -1.140E+00 9.686E-02 2.121E+01
 ETOT  7  -1790.3694283451     2.042E-01 5.492E-02 8.194E+00
 ETOT  8  -1790.6103563755    -2.409E-01 7.552E-03 6.180E+00
 ETOT  9  -1790.6104477011    -9.133E-05 4.383E-03 5.057E+00
 ETOT 10  -1790.4977149061     1.127E-01 1.122E-02 1.416E+00
 ETOT 11  -1790.5781800617    -8.047E-02 1.181E-02 2.055E+00
 ETOT 12  -1790.4802288650     9.795E-02 4.017E-03 4.288E-01
 ETOT 13  -1790.4763984144     3.830E-03 1.968E-03 9.315E-02
 ETOT 14  -1790.4732184974     3.180E-03 2.213E-03 8.139E-02
 ETOT 15  -1790.4753671129    -2.149E-03 3.692E-03 6.250E-02
 ETOT 16  -1790.4719903718     3.377E-03 1.381E-03 2.920E-02
 ETOT 17  -1790.4707124320     1.278E-03 6.315E-04 8.337E-03
 ETOT 18  -1790.4704454447     2.670E-04 4.325E-04 3.356E-03
 ETOT 19  -1790.4703302381     1.152E-04 3.658E-04 1.599E-03
 ETOT 20  -1790.4703072349     2.300E-05 2.130E-04 7.311E-04
 ETOT 21  -1790.4703137634    -6.529E-06 2.308E-04 3.391E-04
 ETOT 22  -1790.4703455686    -3.181E-05 1.017E-04 2.136E-04
 ETOT 23  -1790.4703781646    -3.260E-05 2.098E-04 8.555E-05
 ETOT 24  -1790.4704107377    -3.257E-05 5.823E-05 2.771E-05
 ETOT 25  -1790.4704247606    -1.402E-05 1.696E-04 1.097E-05
 ETOT 26  -1790.4704320604    -7.300E-06 4.707E-05 5.079E-07
 ETOT 27  -1790.4704324181    -3.578E-07 1.308E-04 2.232E-07
 ETOT 28  -1790.4704324633    -4.512E-08 3.393E-05 4.363E-08

 At SCF step   28, etot is converged : 
  for the second time, diff in etot=  4.512E-08 < toldfe=  1.000E-06

 Cartesian components of stress tensor (hartree/bohr^3)
  sigma(1 1)=  1.45389109E-02  sigma(3 2)=  0.00000000E+00
  sigma(2 2)=  1.45389109E-02  sigma(3 1)=  0.00000000E+00
  sigma(3 3)=  1.42044438E-02  sigma(2 1)=  0.00000000E+00


--- !ResultsGS
iteration_state: {dtset: 1, }
comment   : Summary of ground state results
lattice_vectors:
- [  7.7624317,   0.0000000,   0.0000000, ]
- [  0.0000000,   7.7624317,   0.0000000, ]
- [  0.0000000,   0.0000000,  58.7848720, ]
lattice_lengths: [   7.76243,    7.76243,   58.78487, ]
lattice_angles: [ 90.000,  90.000,  90.000, ] # degrees, (23, 13, 12)
lattice_volume:   3.5421028E+03
convergence: {deltae: -4.512E-08, res2:  4.363E-08, residm:  3.393E-05, diffor: null, }
etotal    :  -1.79047043E+03
entropy   :   0.00000000E+00
fermie    :   1.71529931E-01
cartesian_stress_tensor: # hartree/bohr^3
- [  1.45389109E-02,   0.00000000E+00,   0.00000000E+00, ]
- [  0.00000000E+00,   1.45389109E-02,   0.00000000E+00, ]
- [  0.00000000E+00,   0.00000000E+00,   1.42044438E-02, ]
pressure_GPa:  -4.2447E+02
xred      :
- [  5.0000E-01,   0.0000E+00,   1.5001E-01, Sn]
- [  0.0000E+00,   5.0000E-01,   2.3840E-01, Sn]
- [  5.0000E-01,   0.0000E+00,   3.2475E-01, Sn]
- [  0.0000E+00,   5.0000E-01,   4.1314E-01, Sn]
- [  5.0000E-01,   0.0000E+00,   4.9949E-01, Sn]
- [  0.0000E+00,   5.0000E-01,   5.8788E-01, Sn]
- [  5.0000E-01,   0.0000E+00,   6.7423E-01, Sn]
- [  0.0000E+00,   5.0000E-01,   7.6262E-01, Sn]
- [  5.0000E-01,   0.0000E+00,   8.4897E-01, Sn]
- [  0.0000E+00,   5.0000E-01,   1.5103E-01, Se]
- [  5.0000E-01,   0.0000E+00,   2.3738E-01, Se]
- [  0.0000E+00,   5.0000E-01,   3.2577E-01, Se]
- [  5.0000E-01,   0.0000E+00,   4.1212E-01, Se]
- [  0.0000E+00,   5.0000E-01,   5.0051E-01, Se]
- [  5.0000E-01,   0.0000E+00,   5.8686E-01, Se]
- [  0.0000E+00,   5.0000E-01,   6.7525E-01, Se]
- [  5.0000E-01,   0.0000E+00,   7.6160E-01, Se]
- [  0.0000E+00,   5.0000E-01,   8.4999E-01, Se]
cartesian_forces: # hartree/bohr
- [ -0.00000000E+00,  -0.00000000E+00,  -1.31825052E-02, ]
- [ -0.00000000E+00,  -0.00000000E+00,  -1.25485692E-02, ]
- [ -0.00000000E+00,  -0.00000000E+00,   4.53287410E-03, ]
- [ -0.00000000E+00,  -0.00000000E+00,  -1.27718242E-03, ]
- [ -0.00000000E+00,  -0.00000000E+00,   9.43865847E-04, ]
- [ -0.00000000E+00,  -0.00000000E+00,  -3.75503229E-04, ]
- [ -0.00000000E+00,  -0.00000000E+00,  -2.89526478E-03, ]
- [ -0.00000000E+00,  -0.00000000E+00,   1.02520095E-02, ]
- [ -0.00000000E+00,  -0.00000000E+00,   1.40932425E-02, ]
- [ -0.00000000E+00,  -0.00000000E+00,  -1.48558936E-02, ]
- [ -0.00000000E+00,  -0.00000000E+00,  -1.02494538E-02, ]
- [ -0.00000000E+00,  -0.00000000E+00,   1.40460926E-03, ]
- [ -0.00000000E+00,  -0.00000000E+00,   2.66086836E-04, ]
- [ -0.00000000E+00,  -0.00000000E+00,  -1.27853653E-03, ]
- [ -0.00000000E+00,  -0.00000000E+00,   3.44111278E-03, ]
- [ -0.00000000E+00,  -0.00000000E+00,  -4.19685913E-03, ]
- [ -0.00000000E+00,  -0.00000000E+00,   1.31643336E-02, ]
- [ -0.00000000E+00,  -0.00000000E+00,   1.27616336E-02, ]
force_length_stats: {min:   2.66086836E-04, max:   1.48558936E-02, mean:   6.76219643E-03, }
...

 Integrated electronic density in atomic spheres:
 ------------------------------------------------
 Atom  Sphere_radius  Integrated_density
    1        2.00000         10.53738950
    2        2.00000         10.57238582
    3        2.00000         10.58290369
    4        2.00000         10.58994906
    5        2.00000         10.58323467
    6        2.00000         10.55890415
    7        2.00000         10.56201245
    8        2.00000         10.59013376
    9        2.00000         10.54093485
   10        2.00000         13.28341048
   11        2.00000         13.33597556
   12        2.00000         13.30689521
   13        2.00000         13.30301593
   14        2.00000         13.32935061
   15        2.00000         13.33901158
   16        2.00000         13.33125000
   17        2.00000         13.31455058
   18        2.00000         13.27824629
================================================================================

 ----iterations are completed or convergence reached----

 Mean square residual over all n,k,spin=   42.602E-09; max=  33.928E-06
 reduced coordinates (array xred) for   18 atoms
       0.500000000000      0.000000000000      0.150010000000
       0.000000000000      0.500000000000      0.238401000000
       0.500000000000      0.000000000000      0.324750000000
       0.000000000000      0.500000000000      0.413141000000
       0.500000000000      0.000000000000      0.499489000000
       0.000000000000      0.500000000000      0.587880000000
       0.500000000000      0.000000000000      0.674229000000
       0.000000000000      0.500000000000      0.762620000000
       0.500000000000      0.000000000000      0.848968000000
       0.000000000000      0.500000000000      0.151032000000
       0.500000000000      0.000000000000      0.237380000000
       0.000000000000      0.500000000000      0.325771000000
       0.500000000000      0.000000000000      0.412120000000
       0.000000000000      0.500000000000      0.500511000000
       0.500000000000      0.000000000000      0.586859000000
       0.000000000000      0.500000000000      0.675250000000
       0.500000000000      0.000000000000      0.761599000000
       0.000000000000      0.500000000000      0.849990000000
 rms dE/dt=  2.9519E-01; max dE/dt=  8.7487E-01; dE/dt below (all hartree)
    1       0.000000000000      0.000000000000      0.776504005557
    2       0.000000000000      0.000000000000      0.739238156118
    3       0.000000000000      0.000000000000     -0.264892299435
    4       0.000000000000      0.000000000000      0.076651129336
    5       0.000000000000      0.000000000000     -0.053912908908
    6       0.000000000000      0.000000000000      0.023646033293
    7       0.000000000000      0.000000000000      0.171769893239
    8       0.000000000000      0.000000000000     -0.601090939749
    9       0.000000000000      0.000000000000     -0.826897329236
   10       0.000000000000      0.000000000000      0.874873930208
   11       0.000000000000      0.000000000000      0.604084952176
   12       0.000000000000      0.000000000000     -0.080997651506
   13       0.000000000000      0.000000000000     -0.014069756529
   14       0.000000000000      0.000000000000      0.076730730268
   15       0.000000000000      0.000000000000     -0.200713250402
   16       0.000000000000      0.000000000000      0.248283950520
   17       0.000000000000      0.000000000000     -0.772291541666
   18       0.000000000000      0.000000000000     -0.748618870520

 cartesian coordinates (angstrom) at end:
    1      2.05385096425820     0.00000000000000     4.66645324494283
    2      0.00000000000000     2.05385096425820     7.41608639455779
    3      2.05385096425820     0.00000000000000    10.10219779544819
    4      0.00000000000000     2.05385096425820    12.85183094506315
    5      2.05385096425820     0.00000000000000    15.53791123833909
    6      0.00000000000000     2.05385096425820    18.28754438795406
    7      2.05385096425820     0.00000000000000    20.97365578884445
    8      0.00000000000000     2.05385096425820    23.72328893845942
    9      2.05385096425820     0.00000000000000    26.40936923173535
   10      0.00000000000000     2.05385096425820     4.69824522691957
   11      2.05385096425820     0.00000000000000     7.38432552019551
   12      0.00000000000000     2.05385096425820    10.13395866981047
   13      2.05385096425820     0.00000000000000    12.82007007070087
   14      0.00000000000000     2.05385096425820    15.56970322031584
   15      2.05385096425820     0.00000000000000    18.25578351359177
   16      0.00000000000000     2.05385096425820    21.00541666320674
   17      2.05385096425820     0.00000000000000    23.69152806409713
   18      0.00000000000000     2.05385096425820    26.44116121371211

 cartesian forces (hartree/bohr) at end:
    1     -0.00000000000000    -0.00000000000000    -0.01318250521757
    2     -0.00000000000000    -0.00000000000000    -0.01254856916927
    3     -0.00000000000000    -0.00000000000000     0.00453287409717
    4     -0.00000000000000    -0.00000000000000    -0.00127718242418
    5     -0.00000000000000    -0.00000000000000     0.00094386584656
    6     -0.00000000000000    -0.00000000000000    -0.00037550322914
    7     -0.00000000000000    -0.00000000000000    -0.00289526477614
    8     -0.00000000000000    -0.00000000000000     0.01025200946351
    9     -0.00000000000000    -0.00000000000000     0.01409324245260
   10     -0.00000000000000    -0.00000000000000    -0.01485589364808
   11     -0.00000000000000    -0.00000000000000    -0.01024945377779
   12     -0.00000000000000    -0.00000000000000     0.00140460926043
   13     -0.00000000000000    -0.00000000000000     0.00026608683571
   14     -0.00000000000000    -0.00000000000000    -0.00127853652992
   15     -0.00000000000000    -0.00000000000000     0.00344111278380
   16     -0.00000000000000    -0.00000000000000    -0.00419685912705
   17     -0.00000000000000    -0.00000000000000     0.01316433360690
   18     -0.00000000000000    -0.00000000000000     0.01276163355245
 frms,max,avg= 5.0214391E-03 1.4855894E-02   0.000E+00  0.000E+00 -2.674E-05 h/b

 cartesian forces (eV/Angstrom) at end:
    1     -0.00000000000000    -0.00000000000000    -0.67787161632982
    2     -0.00000000000000    -0.00000000000000    -0.64527331679396
    3     -0.00000000000000    -0.00000000000000     0.23308973826727
    4     -0.00000000000000    -0.00000000000000    -0.06567535532414
    5     -0.00000000000000    -0.00000000000000     0.04853552920674
    6     -0.00000000000000    -0.00000000000000    -0.01930915077763
    7     -0.00000000000000    -0.00000000000000    -0.14888048827686
    8     -0.00000000000000    -0.00000000000000     0.52717947847988
    9     -0.00000000000000    -0.00000000000000     0.72470360398103
   10     -0.00000000000000    -0.00000000000000    -0.76392070194828
   11     -0.00000000000000    -0.00000000000000    -0.52704805984755
   12     -0.00000000000000    -0.00000000000000     0.07222790615008
   13     -0.00000000000000    -0.00000000000000     0.01368273408045
   14     -0.00000000000000    -0.00000000000000    -0.06574498623496
   15     -0.00000000000000    -0.00000000000000     0.17694911902012
   16     -0.00000000000000    -0.00000000000000    -0.21581115523994
   17     -0.00000000000000    -0.00000000000000     0.67693719461769
   18     -0.00000000000000    -0.00000000000000     0.65622952696988
 frms,max,avg= 2.5821276E-01 7.6392070E-01   0.000E+00  0.000E+00 -1.375E-03 e/A
 length scales=  7.762431680422  7.762431680422  7.762431680422 bohr
              =  4.107701928516  4.107701928516  4.107701928516 angstroms
 prteigrs : about to open file Cs2TiI6o_EIG
 Fermi (or HOMO) energy (hartree) =   0.17153   Average Vxc (hartree)=  -0.33225
 Eigenvalues (hartree) for nkpt=  10  k points:
 kpt#   1, nband=138, wtk=  0.06250, kpt=  0.0625  0.0625  0.5000 (reduced coord)
  -1.65089   -1.65085   -1.65039   -1.64905   -1.64866   -1.64860   -1.64842   -1.64809
  -1.64797   -1.64736   -1.64733   -1.64639   -1.64585   -1.64564   -1.64533   -1.64422
  -1.64400   -1.64390   -1.64343   -1.64330   -1.64305   -1.64262   -1.64258   -1.64204
  -1.64190   -1.64188   -1.64098   -1.64085   -1.64061   -1.64035   -1.63927   -1.63696
  -1.63651   -1.63368   -1.63320   -1.62395   -1.62320   -1.62233   -1.62197   -1.62098
  -1.61982   -1.61920   -1.61906   -1.61805   -1.61758   -0.64376   -0.64367   -0.64251
  -0.64223   -0.64201   -0.64199   -0.64196   -0.64116   -0.64102   -0.64098   -0.64087
  -0.64086   -0.64069   -0.64013   -0.63961   -0.63953   -0.63928   -0.63919   -0.63907
  -0.63898   -0.63879   -0.63815   -0.63804   -0.63777   -0.63770   -0.63750   -0.63712
  -0.63684   -0.63674   -0.63639   -0.63632   -0.63534   -0.63524   -0.63508   -0.63480
  -0.63478   -0.63468   -0.63416   -0.63415   -0.63393   -0.63385   -0.63373   -0.63366
  -0.63349   -0.63338   -0.39896   -0.39415   -0.38625   -0.37551   -0.36341   -0.34996
  -0.33790   -0.32829   -0.32661   -0.11703   -0.11668   -0.10623   -0.10436   -0.08753
  -0.08401   -0.06329   -0.06150   -0.03905   -0.03112   -0.01957   -0.01208   -0.00615
   0.00186    0.00339    0.01121    0.01566    0.01820    0.02500    0.02871    0.03334
   0.04255    0.04293    0.05328    0.05552    0.05619    0.06387    0.06430    0.06670
   0.06726    0.08429    0.08629    0.09944    0.11171    0.13377    0.14708    0.22306
   0.23984    0.25670
 prteigrs : prtvol=0 or 1, do not print more k-points.


--- !EnergyTerms
iteration_state     : {dtset: 1, }
comment             : Components of total free energy in Hartree
kinetic             :  1.09440917517924E+03
hartree             :  2.17803117123537E+03
xc                  : -4.12893971850787E+02
Ewald energy        :  7.04879976484185E+02
psp_core            :  4.26610864366627E+01
local_psp           : -4.75210251171659E+03
non_local_psp       : -6.45197524907147E+02
VdWaals_dft_d       : -2.57791482892361E-01
total_energy        : -1.79047039062197E+03
...


--- !EnergyTermsDC
iteration_state     : {dtset: 1, }
comment             : '"Double-counting" decomposition of free energy'
band_energy         : -2.10565990303011E+02
Ewald energy        :  7.04879976484185E+02
psp_core            :  4.26610864366627E+01
xc_dc               : -2.32718771359820E+03
VdWaals_dft_d       : -2.57791482892361E-01
total_energy_dc     : -1.79047043246326E+03
...


 Cartesian components of stress tensor (hartree/bohr^3)
  sigma(1 1)=  1.45389109E-02  sigma(3 2)=  0.00000000E+00
  sigma(2 2)=  1.45389109E-02  sigma(3 1)=  0.00000000E+00
  sigma(3 3)=  1.42044438E-02  sigma(2 1)=  0.00000000E+00

-Cartesian components of stress tensor (GPa)         [Pressure= -4.2447E+02 GPa]
- sigma(1 1)=  4.27749454E+02  sigma(3 2)=  0.00000000E+00
- sigma(2 2)=  4.27749454E+02  sigma(3 1)=  0.00000000E+00
- sigma(3 3)=  4.17909093E+02  sigma(2 1)=  0.00000000E+00

== END DATASET(S) ==============================================================
================================================================================
  
 -outvars: echo values of variables after computation  --------
            acell      7.7624316804E+00  7.7624316804E+00  7.7624316804E+00 Bohr
              amu      1.18710000E+02  7.89600000E+01
           diemac      1.20000000E+01
             ecut      2.25000000E+01 Hartree
           etotal     -1.7904704325E+03
            fcart     -0.0000000000E+00 -0.0000000000E+00 -1.3182505218E-02
                      -0.0000000000E+00 -0.0000000000E+00 -1.2548569169E-02
                      -0.0000000000E+00 -0.0000000000E+00  4.5328740972E-03
                      -0.0000000000E+00 -0.0000000000E+00 -1.2771824242E-03
                      -0.0000000000E+00 -0.0000000000E+00  9.4386584656E-04
                      -0.0000000000E+00 -0.0000000000E+00 -3.7550322914E-04
                      -0.0000000000E+00 -0.0000000000E+00 -2.8952647761E-03
                      -0.0000000000E+00 -0.0000000000E+00  1.0252009464E-02
                      -0.0000000000E+00 -0.0000000000E+00  1.4093242453E-02
                      -0.0000000000E+00 -0.0000000000E+00 -1.4855893648E-02
                      -0.0000000000E+00 -0.0000000000E+00 -1.0249453778E-02
                      -0.0000000000E+00 -0.0000000000E+00  1.4046092604E-03
                      -0.0000000000E+00 -0.0000000000E+00  2.6608683571E-04
                      -0.0000000000E+00 -0.0000000000E+00 -1.2785365299E-03
                      -0.0000000000E+00 -0.0000000000E+00  3.4411127838E-03
                      -0.0000000000E+00 -0.0000000000E+00 -4.1968591270E-03
                      -0.0000000000E+00 -0.0000000000E+00  1.3164333607E-02
                      -0.0000000000E+00 -0.0000000000E+00  1.2761633552E-02
-          fftalg         112
             iscf          17
              ixc          11
              kpt      6.25000000E-02  6.25000000E-02  5.00000000E-01
                       1.87500000E-01  6.25000000E-02  5.00000000E-01
                       3.12500000E-01  6.25000000E-02  5.00000000E-01
                       4.37500000E-01  6.25000000E-02  5.00000000E-01
                       1.87500000E-01  1.87500000E-01  5.00000000E-01
                       3.12500000E-01  1.87500000E-01  5.00000000E-01
                       4.37500000E-01  1.87500000E-01  5.00000000E-01
                       3.12500000E-01  3.12500000E-01  5.00000000E-01
                       4.37500000E-01  3.12500000E-01  5.00000000E-01
                       4.37500000E-01  4.37500000E-01  5.00000000E-01
         kptrlatt        8    0    0      0    8    0      0    0    1
          kptrlen      6.20994534E+01
P           mkmem           2
            natom          18
            nband         138
            ngfft          36      36     256
             nkpt          10
            nstep         150
             nsym           8
           ntypat           2
              occ      2.000000  2.000000  2.000000  2.000000  2.000000  2.000000
                       2.000000  2.000000  2.000000  2.000000  2.000000  2.000000
                       2.000000  2.000000  2.000000  2.000000  2.000000  2.000000
                       2.000000  2.000000  2.000000  2.000000  2.000000  2.000000
                       2.000000  2.000000  2.000000  2.000000  2.000000  2.000000
                       2.000000  2.000000  2.000000  2.000000  2.000000  2.000000
                       2.000000  2.000000  2.000000  2.000000  2.000000  2.000000
                       2.000000  2.000000  2.000000  2.000000  2.000000  2.000000
                       2.000000  2.000000  2.000000  2.000000  2.000000  2.000000
                       2.000000  2.000000  2.000000  2.000000  2.000000  2.000000
                       2.000000  2.000000  2.000000  2.000000  2.000000  2.000000
                       2.000000  2.000000  2.000000  2.000000  2.000000  2.000000
                       2.000000  2.000000  2.000000  2.000000  2.000000  2.000000
                       2.000000  2.000000  2.000000  2.000000  2.000000  2.000000
                       2.000000  2.000000  2.000000  2.000000  2.000000  2.000000
                       2.000000  2.000000  2.000000  2.000000  2.000000  2.000000
                       2.000000  2.000000  2.000000  2.000000  2.000000  2.000000
                       2.000000  2.000000  2.000000  2.000000  2.000000  2.000000
                       2.000000  2.000000  2.000000  2.000000  2.000000  2.000000
                       2.000000  2.000000  2.000000  2.000000  2.000000  2.000000
                       2.000000  2.000000  2.000000  2.000000  2.000000  2.000000
                       2.000000  2.000000  2.000000  2.000000  2.000000  2.000000
                       2.000000  2.000000  2.000000  0.000000  0.000000  0.000000
           prtcif           1
            rprim      1.0000000000E+00  0.0000000000E+00  0.0000000000E+00
                       0.0000000000E+00  1.0000000000E+00  0.0000000000E+00
                       0.0000000000E+00  0.0000000000E+00  7.5729970188E+00
           shiftk      5.00000000E-01  5.00000000E-01  5.00000000E-01
          spgroup          99
           strten      1.4538910874E-02  1.4538910874E-02  1.4204443762E-02
                       0.0000000000E+00  0.0000000000E+00  0.0000000000E+00
           symrel      1  0  0   0  1  0   0  0  1       1  0  0   0 -1  0   0  0  1
                      -1  0  0   0 -1  0   0  0  1      -1  0  0   0  1  0   0  0  1
                       0  1  0   1  0  0   0  0  1       0  1  0  -1  0  0   0  0  1
                       0 -1  0  -1  0  0   0  0  1       0 -1  0   1  0  0   0  0  1
            tnons      0.0000000  0.0000000  0.0000000     0.0000000  0.0000000  0.0000000
                      -0.0000000  0.0000000  0.0000000    -0.0000000  0.0000000  0.0000000
                       0.5000000  0.5000000  0.0000000     0.5000000  0.5000000  0.0000000
                       0.5000000  0.5000000  0.0000000     0.5000000  0.5000000  0.0000000
           toldfe      1.00000000E-06 Hartree
            typat      1  1  1  1  1  1  1  1  1  2  2  2  2  2  2  2  2  2
           vdw_xc           5
              wtk        0.06250    0.12500    0.12500    0.12500    0.06250    0.12500
                         0.12500    0.06250    0.12500    0.06250
           xangst      2.0538509643E+00  0.0000000000E+00  4.6664532449E+00
                       0.0000000000E+00  2.0538509643E+00  7.4160863946E+00
                       2.0538509643E+00  0.0000000000E+00  1.0102197795E+01
                       0.0000000000E+00  2.0538509643E+00  1.2851830945E+01
                       2.0538509643E+00  0.0000000000E+00  1.5537911238E+01
                       0.0000000000E+00  2.0538509643E+00  1.8287544388E+01
                       2.0538509643E+00  0.0000000000E+00  2.0973655789E+01
                       0.0000000000E+00  2.0538509643E+00  2.3723288938E+01
                       2.0538509643E+00  0.0000000000E+00  2.6409369232E+01
                       0.0000000000E+00  2.0538509643E+00  4.6982452269E+00
                       2.0538509643E+00  0.0000000000E+00  7.3843255202E+00
                       0.0000000000E+00  2.0538509643E+00  1.0133958670E+01
                       2.0538509643E+00  0.0000000000E+00  1.2820070071E+01
                       0.0000000000E+00  2.0538509643E+00  1.5569703220E+01
                       2.0538509643E+00  0.0000000000E+00  1.8255783514E+01
                       0.0000000000E+00  2.0538509643E+00  2.1005416663E+01
                       2.0538509643E+00  0.0000000000E+00  2.3691528064E+01
                       0.0000000000E+00  2.0538509643E+00  2.6441161214E+01
            xcart      3.8812158402E+00  0.0000000000E+00  8.8183186449E+00
                       0.0000000000E+00  3.8812158402E+00  1.4014372264E+01
                       3.8812158402E+00  0.0000000000E+00  1.9090387174E+01
                       0.0000000000E+00  3.8812158402E+00  2.4286440792E+01
                       3.8812158402E+00  0.0000000000E+00  2.9362396918E+01
                       0.0000000000E+00  3.8812158402E+00  3.4558450536E+01
                       3.8812158402E+00  0.0000000000E+00  3.9634465446E+01
                       0.0000000000E+00  3.8812158402E+00  4.4830519065E+01
                       3.8812158402E+00  0.0000000000E+00  4.9906475190E+01
                       0.0000000000E+00  3.8812158402E+00  8.8783967840E+00
                       3.8812158402E+00  0.0000000000E+00  1.3954352909E+01
                       0.0000000000E+00  3.8812158402E+00  1.9150406528E+01
                       3.8812158402E+00  0.0000000000E+00  2.4226421438E+01
                       0.0000000000E+00  3.8812158402E+00  2.9422475057E+01
                       3.8812158402E+00  0.0000000000E+00  3.4498431182E+01
                       0.0000000000E+00  3.8812158402E+00  3.9694484801E+01
                       3.8812158402E+00  0.0000000000E+00  4.4770499711E+01
                       0.0000000000E+00  3.8812158402E+00  4.9966553329E+01
             xred      5.0000000000E-01  0.0000000000E+00  1.5001000000E-01
                       0.0000000000E+00  5.0000000000E-01  2.3840100000E-01
                       5.0000000000E-01  0.0000000000E+00  3.2475000000E-01
                       0.0000000000E+00  5.0000000000E-01  4.1314100000E-01
                       5.0000000000E-01  0.0000000000E+00  4.9948900000E-01
                       0.0000000000E+00  5.0000000000E-01  5.8788000000E-01
                       5.0000000000E-01  0.0000000000E+00  6.7422900000E-01
                       0.0000000000E+00  5.0000000000E-01  7.6262000000E-01
                       5.0000000000E-01  0.0000000000E+00  8.4896800000E-01
                       0.0000000000E+00  5.0000000000E-01  1.5103200000E-01
                       5.0000000000E-01  0.0000000000E+00  2.3738000000E-01
                       0.0000000000E+00  5.0000000000E-01  3.2577100000E-01
                       5.0000000000E-01  0.0000000000E+00  4.1212000000E-01
                       0.0000000000E+00  5.0000000000E-01  5.0051100000E-01
                       5.0000000000E-01  0.0000000000E+00  5.8685900000E-01
                       0.0000000000E+00  5.0000000000E-01  6.7525000000E-01
                       5.0000000000E-01  0.0000000000E+00  7.6159900000E-01
                       0.0000000000E+00  5.0000000000E-01  8.4999000000E-01
            znucl       50.00000   34.00000

================================================================================


- Timing analysis has been suppressed with timopt=0



================================================================================

 Suggested references for the acknowledgment of ABINIT usage.

 The users of ABINIT have little formal obligations with respect to the ABINIT group
 (those specified in the GNU General Public License, http://www.gnu.org/copyleft/gpl.txt).
 However, it is common practice in the scientific literature,
 to acknowledge the efforts of people that have made the research possible.
 In this spirit, please find below suggested citations of work written by ABINIT developers,
 corresponding to implementations inside of ABINIT that you have used in the present run.
 Note also that it will be of great value to readers of publications presenting these results,
 to read papers enabling them to understand the theoretical formalism and details
 of the ABINIT implementation.
 For information on why they are suggested, see also https://docs.abinit.org/theory/acknowledgments.
-
- [1] The Abinit project: Impact, environment and recent developments.
- Computer Phys. Comm. 248, 107042 (2020).
- X.Gonze, B. Amadon, G. Antonius, F.Arnardi, L.Baguet, J.-M.Beuken,
- J.Bieder, F.Bottin, J.Bouchet, E.Bousquet, N.Brouwer, F.Bruneval,
- G.Brunin, T.Cavignac, J.-B. Charraud, Wei Chen, M.Cote, S.Cottenier,
- J.Denier, G.Geneste, Ph.Ghosez, M.Giantomassi, Y.Gillet, O.Gingras,
- D.R.Hamann, G.Hautier, Xu He, N.Helbig, N.Holzwarth, Y.Jia, F.Jollet,
- W.Lafargue-Dit-Hauret, K.Lejaeghere, M.A.L.Marques, A.Martin, C.Martins,
- H.P.C. Miranda, F.Naccarato, K. Persson, G.Petretto, V.Planes, Y.Pouillon,
- S.Prokhorenko, F.Ricci, G.-M.Rignanese, A.H.Romero, M.M.Schmitt, M.Torrent,
- M.J.van Setten, B.Van Troeye, M.J.Verstraete, G.Zerah and J.W.Zwanzig
- Comment: the fifth generic paper describing the ABINIT project.
- Note that a version of this paper, that is not formatted for Computer Phys. Comm. 
- is available at https://www.abinit.org/sites/default/files/ABINIT20.pdf .
- The licence allows the authors to put it on the Web.
- DOI and bibtex: see https://docs.abinit.org/theory/bibliography/#gonze2020
-
- [2] Optimized norm-conserving Vanderbilt pseudopotentials.
- D.R. Hamann, Phys. Rev. B 88, 085117 (2013).
- Comment: Some pseudopotential generated using the ONCVPSP code were used.
- DOI and bibtex: see https://docs.abinit.org/theory/bibliography/#hamann2013
-
- [3] ABINIT: Overview, and focus on selected capabilities
- J. Chem. Phys. 152, 124102 (2020).
- A. Romero, D.C. Allan, B. Amadon, G. Antonius, T. Applencourt, L.Baguet,
- J.Bieder, F.Bottin, J.Bouchet, E.Bousquet, F.Bruneval,
- G.Brunin, D.Caliste, M.Cote,
- J.Denier, C. Dreyer, Ph.Ghosez, M.Giantomassi, Y.Gillet, O.Gingras,
- D.R.Hamann, G.Hautier, F.Jollet, G. Jomard,
- A.Martin, 
- H.P.C. Miranda, F.Naccarato, G.Petretto, N.A. Pike, V.Planes,
- S.Prokhorenko, T. Rangel, F.Ricci, G.-M.Rignanese, M.Royo, M.Stengel, M.Torrent,
- M.J.van Setten, B.Van Troeye, M.J.Verstraete, J.Wiktor, J.W.Zwanziger, and X.Gonze.
- Comment: a global overview of ABINIT, with focus on selected capabilities .
- Note that a version of this paper, that is not formatted for J. Chem. Phys 
- is available at https://www.abinit.org/sites/default/files/ABINIT20_JPC.pdf .
- The licence allows the authors to put it on the Web.
- DOI and bibtex: see https://docs.abinit.org/theory/bibliography/#romero2020
-
- [4] Recent developments in the ABINIT software package.
- Computer Phys. Comm. 205, 106 (2016).
- X.Gonze, F.Jollet, F.Abreu Araujo, D.Adams, B.Amadon, T.Applencourt,
- C.Audouze, J.-M.Beuken, J.Bieder, A.Bokhanchuk, E.Bousquet, F.Bruneval
- D.Caliste, M.Cote, F.Dahm, F.Da Pieve, M.Delaveau, M.Di Gennaro,
- B.Dorado, C.Espejo, G.Geneste, L.Genovese, A.Gerossier, M.Giantomassi,
- Y.Gillet, D.R.Hamann, L.He, G.Jomard, J.Laflamme Janssen, S.Le Roux,
- A.Levitt, A.Lherbier, F.Liu, I.Lukacevic, A.Martin, C.Martins,
- M.J.T.Oliveira, S.Ponce, Y.Pouillon, T.Rangel, G.-M.Rignanese,
- A.H.Romero, B.Rousseau, O.Rubel, A.A.Shukri, M.Stankovski, M.Torrent,
- M.J.Van Setten, B.Van Troeye, M.J.Verstraete, D.Waroquier, J.Wiktor,
- B.Xu, A.Zhou, J.W.Zwanziger.
- Comment: the fourth generic paper describing the ABINIT project.
- Note that a version of this paper, that is not formatted for Computer Phys. Comm. 
- is available at https://www.abinit.org/sites/default/files/ABINIT16.pdf .
- The licence allows the authors to put it on the Web.
- DOI and bibtex: see https://docs.abinit.org/theory/bibliography/#gonze2016
-
- And optionally:
-
- [5] ABINIT: First-principles approach of materials and nanosystem properties.
- Computer Phys. Comm. 180, 2582-2615 (2009).
- X. Gonze, B. Amadon, P.-M. Anglade, J.-M. Beuken, F. Bottin, P. Boulanger, F. Bruneval,
- D. Caliste, R. Caracas, M. Cote, T. Deutsch, L. Genovese, Ph. Ghosez, M. Giantomassi
- S. Goedecker, D.R. Hamann, P. Hermet, F. Jollet, G. Jomard, S. Leroux, M. Mancini, S. Mazevet,
- M.J.T. Oliveira, G. Onida, Y. Pouillon, T. Rangel, G.-M. Rignanese, D. Sangalli, R. Shaltaf,
- M. Torrent, M.J. Verstraete, G. Zerah, J.W. Zwanziger
- Comment: the third generic paper describing the ABINIT project.
- Note that a version of this paper, that is not formatted for Computer Phys. Comm. 
- is available at https://www.abinit.org/sites/default/files/ABINIT_CPC_v10.pdf .
- The licence allows the authors to put it on the Web.
- DOI and bibtex: see https://docs.abinit.org/theory/bibliography/#gonze2009
-
- Proc.   0 individual time (sec): cpu=       2253.6  wall=       2253.7

================================================================================

 Calculation completed.
.Delivered   0 WARNINGs and   0 COMMENTs to log file.
+Overall time at end (sec) : cpu=      13521.4  wall=      13521.8
