
.Version 9.2.2 of ABINIT 
.(MPI version, prepared for a x86_64_linux_gnu9.3 computer) 

.Copyright (C) 1998-2020 ABINIT group . 
 ABINIT comes with ABSOLUTELY NO WARRANTY.
 It is free software, and you are welcome to redistribute it
 under certain conditions (GNU General Public License,
 see ~abinit/COPYING or http://www.gnu.org/copyleft/gpl.txt).

 ABINIT is a project of the Universite Catholique de Louvain,
 Corning Inc. and other collaborators, see ~abinit/doc/developers/contributors.txt .
 Please read https://docs.abinit.org/theory/acknowledgments for suggested
 acknowledgments of the ABINIT effort.
 For more information, see https://www.abinit.org .

.Starting date : Sun 17 Mar 2024.
- ( at 02h28 )
  
- The starting date is more than 3 years after the initial release
- of this version of ABINIT, namely Nov 2020.
- This version of ABINIT is not supported anymore.
- Action: please, switch to a more recent version of ABINIT.
- input  file    -> Cs2TiI6.in
- output file    -> Cs2TiI6.out
- root for input  files -> Cs2TiI6i
- root for output files -> Cs2TiI6o


 DATASET    1 : space group P4 m m (# 99); Bravais tP (primitive tetrag.)
================================================================================
 Values of the parameters that define the memory need for DATASET  1.
     intxc =       0    ionmov =       0      iscf =      17    lmnmax =       6
     lnmax =       6     mgfft =     128  mpssoang =       3    mqgrid =    6225
     natom =       6  nloc_mem =       1    nspden =       1   nspinor =       1
    nsppol =       1      nsym =       8    n1xccc =    2501    ntypat =       3
    occopt =       1   xclevel =       2
-    mband =          60        mffmem =           1         mkmem =           5
       mpw =        8983          nfft =      165888          nkpt =          30
================================================================================
P This job should need less than                     101.537 Mbytes of memory.
  Rough estimation (10% accuracy) of disk space for files :
_ WF disk file :    246.727 Mbytes ; DEN or POT disk file :      1.268 Mbytes.
================================================================================


 DATASET    2 : space group P4 m m (# 99); Bravais tP (primitive tetrag.)
================================================================================
 Values of the parameters that define the memory need for DATASET  2.
     intxc =       0    ionmov =       0      iscf =      -2    lmnmax =       6
     lnmax =       6     mgfft =     128  mpssoang =       3    mqgrid =    6225
     natom =       6  nloc_mem =       1    nspden =       1   nspinor =       1
    nsppol =       1      nsym =       8    n1xccc =    2501    ntypat =       3
    occopt =       1   xclevel =       2
-    mband =          60        mffmem =           1         mkmem =          10
       mpw =        9023          nfft =      165888          nkpt =          57
================================================================================
P This job should need less than                     118.267 Mbytes of memory.
  Rough estimation (10% accuracy) of disk space for files :
_ WF disk file :    470.868 Mbytes ; DEN or POT disk file :      1.268 Mbytes.
================================================================================


 DATASET    3 : space group P4 m m (# 99); Bravais tP (primitive tetrag.)
================================================================================
 Values of the parameters that define the memory need for DATASET  3.
     intxc =       0    ionmov =       0      iscf =      -3    lmnmax =       6
     lnmax =       6     mgfft =     128  mpssoang =       3    mqgrid =    6225
     natom =       6  nloc_mem =       1    nspden =       1   nspinor =       1
    nsppol =       1      nsym =       8    n1xccc =    2501    ntypat =       3
    occopt =       1   xclevel =       2
-    mband =          60        mffmem =           1         mkmem =           5
       mpw =        8983          nfft =      165888          nkpt =          30
================================================================================
P This job should need less than                      76.225 Mbytes of memory.
  Rough estimation (10% accuracy) of disk space for files :
_ WF disk file :    246.727 Mbytes ; DEN or POT disk file :      1.268 Mbytes.
================================================================================

--------------------------------------------------------------------------------
------------- Echo of variables that govern the present computation ------------
--------------------------------------------------------------------------------
-
- outvars: echo of selected default values                                      
-   iomode0 =  0 , fftalg0 =112 , wfoptalg0 =  0
-
- outvars: echo of global parameters not present in the input file              
-  max_nthreads =    0
-
 -outvars: echo values of preprocessed input variables --------
            acell      7.7624316804E+00  7.7624316804E+00  7.7624316804E+00 Bohr
              amu      1.18710000E+02  7.89600000E+01  6.53900000E+01
           diemac      1.20000000E+01
        dosdeltae1     0.00000000E+00 Hartree
        dosdeltae2     0.00000000E+00 Hartree
        dosdeltae3     1.00000000E-03 Hartree
             ecut      2.25000000E+01 Hartree
-          fftalg         112
           getden1          0
           getden2          1
           getden3          1
           getwfk1          0
           getwfk2          0
           getwfk3          1
           iatsph3       1    2    4    5
             iscf1         17
             iscf2         -2
             iscf3         -3
           istwfk2       7    0    0    0    0    0    0    0    0    0
                         4    0    0    0    0    0    0    0    0    0
                         0    0    2    0    0    0    0    0    0    0
                         0    0    0    0    0    0    0    0    0    0
                         9    0    0    0    0    0    0    0    8    0
              ixc     -101130
           jdtset        1    2    3
              kpt1     5.00000000E-02  5.00000000E-02  1.25000000E-01
                       1.50000000E-01  5.00000000E-02  1.25000000E-01
                       2.50000000E-01  5.00000000E-02  1.25000000E-01
                       3.50000000E-01  5.00000000E-02  1.25000000E-01
                       4.50000000E-01  5.00000000E-02  1.25000000E-01
                       1.50000000E-01  1.50000000E-01  1.25000000E-01
                       2.50000000E-01  1.50000000E-01  1.25000000E-01
                       3.50000000E-01  1.50000000E-01  1.25000000E-01
                       4.50000000E-01  1.50000000E-01  1.25000000E-01
                       2.50000000E-01  2.50000000E-01  1.25000000E-01
                       3.50000000E-01  2.50000000E-01  1.25000000E-01
                       4.50000000E-01  2.50000000E-01  1.25000000E-01
                       3.50000000E-01  3.50000000E-01  1.25000000E-01
                       4.50000000E-01  3.50000000E-01  1.25000000E-01
                       4.50000000E-01  4.50000000E-01  1.25000000E-01
                       5.00000000E-02  5.00000000E-02  3.75000000E-01
                       1.50000000E-01  5.00000000E-02  3.75000000E-01
                       2.50000000E-01  5.00000000E-02  3.75000000E-01
                       3.50000000E-01  5.00000000E-02  3.75000000E-01
                       4.50000000E-01  5.00000000E-02  3.75000000E-01
                       1.50000000E-01  1.50000000E-01  3.75000000E-01
                       2.50000000E-01  1.50000000E-01  3.75000000E-01
                       3.50000000E-01  1.50000000E-01  3.75000000E-01
                       4.50000000E-01  1.50000000E-01  3.75000000E-01
                       2.50000000E-01  2.50000000E-01  3.75000000E-01
                       3.50000000E-01  2.50000000E-01  3.75000000E-01
                       4.50000000E-01  2.50000000E-01  3.75000000E-01
                       3.50000000E-01  3.50000000E-01  3.75000000E-01
                       4.50000000E-01  3.50000000E-01  3.75000000E-01
                       4.50000000E-01  4.50000000E-01  3.75000000E-01
              kpt2     5.00000000E-01  5.00000000E-01  0.00000000E+00
                       4.50000000E-01  4.50000000E-01  5.00000000E-02
                       4.00000000E-01  4.00000000E-01  1.00000000E-01
                       3.50000000E-01  3.50000000E-01  1.50000000E-01
                       3.00000000E-01  3.00000000E-01  2.00000000E-01
                       2.50000000E-01  2.50000000E-01  2.50000000E-01
                       2.00000000E-01  2.00000000E-01  3.00000000E-01
                       1.50000000E-01  1.50000000E-01  3.50000000E-01
                       1.00000000E-01  1.00000000E-01  4.00000000E-01
                       5.00000000E-02  5.00000000E-02  4.50000000E-01
                       0.00000000E+00  0.00000000E+00  5.00000000E-01
                       0.00000000E+00  0.00000000E+00  4.58333333E-01
                       0.00000000E+00  0.00000000E+00  4.16666667E-01
                       0.00000000E+00  0.00000000E+00  3.75000000E-01
                       0.00000000E+00  0.00000000E+00  3.33333333E-01
                       0.00000000E+00  0.00000000E+00  2.91666667E-01
                       0.00000000E+00  0.00000000E+00  2.50000000E-01
                       0.00000000E+00  0.00000000E+00  2.08333333E-01
                       0.00000000E+00  0.00000000E+00  1.66666667E-01
                       0.00000000E+00  0.00000000E+00  1.25000000E-01
                       0.00000000E+00  0.00000000E+00  8.33333333E-02
                       0.00000000E+00  0.00000000E+00  4.16666667E-02
                       0.00000000E+00  0.00000000E+00  0.00000000E+00
                       2.77777778E-02  2.77777778E-02  2.77777778E-02
                       5.55555556E-02  5.55555556E-02  5.55555556E-02
                       8.33333333E-02  8.33333333E-02  8.33333333E-02
                       1.11111111E-01  1.11111111E-01  1.11111111E-01
                       1.38888889E-01  1.38888889E-01  1.38888889E-01
                       1.66666667E-01  1.66666667E-01  1.66666667E-01
                       1.94444444E-01  1.94444444E-01  1.94444444E-01
                       2.22222222E-01  2.22222222E-01  2.22222222E-01
                       2.50000000E-01  2.50000000E-01  2.50000000E-01
                       2.77777778E-01  2.77777778E-01  2.77777778E-01
                       3.05555556E-01  3.05555556E-01  3.05555556E-01
                       3.33333333E-01  3.33333333E-01  3.33333333E-01
                       3.61111111E-01  3.61111111E-01  3.61111111E-01
                       3.88888889E-01  3.88888889E-01  3.88888889E-01
                       4.16666667E-01  4.16666667E-01  4.16666667E-01
                       4.44444444E-01  4.44444444E-01  4.44444444E-01
                       4.72222222E-01  4.72222222E-01  4.72222222E-01
                       5.00000000E-01  5.00000000E-01  5.00000000E-01
                       4.37500000E-01  5.00000000E-01  5.00000000E-01
                       3.75000000E-01  5.00000000E-01  5.00000000E-01
                       3.12500000E-01  5.00000000E-01  5.00000000E-01
                       2.50000000E-01  5.00000000E-01  5.00000000E-01
                       1.87500000E-01  5.00000000E-01  5.00000000E-01
                       1.25000000E-01  5.00000000E-01  5.00000000E-01
                       6.25000000E-02  5.00000000E-01  5.00000000E-01
                       0.00000000E+00  5.00000000E-01  5.00000000E-01
                       0.00000000E+00  5.00000000E-01  4.37500000E-01
              kpt3     5.00000000E-02  5.00000000E-02  1.25000000E-01
                       1.50000000E-01  5.00000000E-02  1.25000000E-01
                       2.50000000E-01  5.00000000E-02  1.25000000E-01
                       3.50000000E-01  5.00000000E-02  1.25000000E-01
                       4.50000000E-01  5.00000000E-02  1.25000000E-01
                       1.50000000E-01  1.50000000E-01  1.25000000E-01
                       2.50000000E-01  1.50000000E-01  1.25000000E-01
                       3.50000000E-01  1.50000000E-01  1.25000000E-01
                       4.50000000E-01  1.50000000E-01  1.25000000E-01
                       2.50000000E-01  2.50000000E-01  1.25000000E-01
                       3.50000000E-01  2.50000000E-01  1.25000000E-01
                       4.50000000E-01  2.50000000E-01  1.25000000E-01
                       3.50000000E-01  3.50000000E-01  1.25000000E-01
                       4.50000000E-01  3.50000000E-01  1.25000000E-01
                       4.50000000E-01  4.50000000E-01  1.25000000E-01
                       5.00000000E-02  5.00000000E-02  3.75000000E-01
                       1.50000000E-01  5.00000000E-02  3.75000000E-01
                       2.50000000E-01  5.00000000E-02  3.75000000E-01
                       3.50000000E-01  5.00000000E-02  3.75000000E-01
                       4.50000000E-01  5.00000000E-02  3.75000000E-01
                       1.50000000E-01  1.50000000E-01  3.75000000E-01
                       2.50000000E-01  1.50000000E-01  3.75000000E-01
                       3.50000000E-01  1.50000000E-01  3.75000000E-01
                       4.50000000E-01  1.50000000E-01  3.75000000E-01
                       2.50000000E-01  2.50000000E-01  3.75000000E-01
                       3.50000000E-01  2.50000000E-01  3.75000000E-01
                       4.50000000E-01  2.50000000E-01  3.75000000E-01
                       3.50000000E-01  3.50000000E-01  3.75000000E-01
                       4.50000000E-01  3.50000000E-01  3.75000000E-01
                       4.50000000E-01  4.50000000E-01  3.75000000E-01
                       outvar_i_n : Printing only first  50 k-points.
           kptopt1          1
           kptopt2         -5
           kptopt3          1
         kptrlatt       10    0    0      0   10    0      0    0    4
          kptrlen1     7.76243168E+01
          kptrlen2     3.00000000E+01
          kptrlen3     7.76243168E+01
P           mkmem1          5
P           mkmem2         10
P           mkmem3          5
            natom           6
           natsph3       4
            nband1         60
            nband2         60
            nband3         60
           nbdbuf1          0
           nbdbuf2          2
           nbdbuf3          2
           ndtset           3
            ngfft          36      36     128
             nkpt1         30
             nkpt2         57
             nkpt3         30
            nstep1       1000
            nstep2        300
            nstep3        300
             nsym           8
           ntypat           3
              occ      2.000000  2.000000  2.000000  2.000000  2.000000  2.000000
                       2.000000  2.000000  2.000000  2.000000  2.000000  2.000000
                       2.000000  2.000000  2.000000  2.000000  2.000000  2.000000
                       2.000000  2.000000  2.000000  2.000000  2.000000  2.000000
                       2.000000  2.000000  2.000000  2.000000  2.000000  2.000000
                       2.000000  2.000000  2.000000  2.000000  2.000000  2.000000
                       2.000000  2.000000  2.000000  2.000000  2.000000  2.000000
                       2.000000  2.000000  2.000000  2.000000  2.000000  2.000000
                       2.000000  2.000000  2.000000  0.000000  0.000000  0.000000
                       0.000000  0.000000  0.000000  0.000000  0.000000  0.000000
           prtcif           1
           prtdos1          0
           prtdos2          0
           prtdos3          3
            rprim      1.0000000000E+00  0.0000000000E+00  0.0000000000E+00
                       0.0000000000E+00  1.0000000000E+00  0.0000000000E+00
                       0.0000000000E+00  0.0000000000E+00  3.7552899407E+00
           shiftk      5.00000000E-01  5.00000000E-01  5.00000000E-01
          spgroup          99
           symrel      1  0  0   0  1  0   0  0  1       1  0  0   0 -1  0   0  0  1
                      -1  0  0   0 -1  0   0  0  1      -1  0  0   0  1  0   0  0  1
                       0  1  0   1  0  0   0  0  1       0  1  0  -1  0  0   0  0  1
                       0 -1  0  -1  0  0   0  0  1       0 -1  0   1  0  0   0  0  1
            tnons      0.0000000  0.0000000  0.0000000     0.0000000  0.0000000  0.0000000
                       0.0000000  0.0000000  0.0000000     0.0000000  0.0000000  0.0000000
                       0.5000000  0.5000000  0.0000000     0.5000000  0.5000000  0.0000000
                       0.5000000  0.5000000  0.0000000     0.5000000  0.5000000  0.0000000
           tolwfr      1.00000000E-20
            typat      1  2  2  2  3  3
           vdw_xc           5
              wtk1       0.02000    0.04000    0.04000    0.04000    0.04000    0.02000
                         0.04000    0.04000    0.04000    0.02000    0.04000    0.04000
                         0.02000    0.04000    0.02000    0.02000    0.04000    0.04000
                         0.04000    0.04000    0.02000    0.04000    0.04000    0.04000
                         0.02000    0.04000    0.04000    0.02000    0.04000    0.02000
              wtk2       1.00000    1.00000    1.00000    1.00000    1.00000    1.00000
                         1.00000    1.00000    1.00000    1.00000    1.00000    1.00000
                         1.00000    1.00000    1.00000    1.00000    1.00000    1.00000
                         1.00000    1.00000    1.00000    1.00000    1.00000    1.00000
                         1.00000    1.00000    1.00000    1.00000    1.00000    1.00000
                         1.00000    1.00000    1.00000    1.00000    1.00000    1.00000
                         1.00000    1.00000    1.00000    1.00000    1.00000    1.00000
                         1.00000    1.00000    1.00000    1.00000    1.00000    1.00000
                         1.00000    1.00000
              wtk3       0.02000    0.04000    0.04000    0.04000    0.04000    0.02000
                         0.04000    0.04000    0.04000    0.02000    0.04000    0.04000
                         0.02000    0.04000    0.02000    0.02000    0.04000    0.04000
                         0.04000    0.04000    0.02000    0.04000    0.04000    0.04000
                         0.02000    0.04000    0.04000    0.02000    0.04000    0.02000
                       outvars : Printing only first  50 k-points.
           xangst      2.0538509643E+00  0.0000000000E+00  4.6664635074E+00
                       0.0000000000E+00  2.0538509643E+00  4.6982402675E+00
                       2.0538509643E+00  0.0000000000E+00  7.7691247742E+00
                       0.0000000000E+00  2.0538509643E+00  1.0759148224E+01
                       2.0538509643E+00  2.0538509643E+00  9.2641442120E+00
                       0.0000000000E+00  0.0000000000E+00  9.2641442120E+00
            xcart      3.8812158402E+00  0.0000000000E+00  8.8183380380E+00
                       0.0000000000E+00  3.8812158402E+00  8.8783874121E+00
                       3.8812158402E+00  0.0000000000E+00  1.4681518115E+01
                       0.0000000000E+00  3.8812158402E+00  2.0331843567E+01
                       3.8812158402E+00  3.8812158402E+00  1.7506695416E+01
                       0.0000000000E+00  0.0000000000E+00  1.7506695416E+01
             xred      5.0000000000E-01  0.0000000000E+00  3.0251400000E-01
                       0.0000000000E+00  5.0000000000E-01  3.0457400000E-01
                       5.0000000000E-01  0.0000000000E+00  5.0365100000E-01
                       0.0000000000E+00  5.0000000000E-01  6.9748600000E-01
                       5.0000000000E-01  5.0000000000E-01  6.0056900000E-01
                       0.0000000000E+00  0.0000000000E+00  6.0056900000E-01
            znucl       50.00000   34.00000   30.00000

================================================================================

 chkinp: Checking input parameters for consistency, jdtset=   1.

 chkinp: Checking input parameters for consistency, jdtset=   2.

 chkinp: Checking input parameters for consistency, jdtset=   3.

================================================================================
== DATASET  1 ==================================================================
-   mpi_nproc: 6, omp_nthreads: -1 (-1 if OMP is not activated)


--- !DatasetInfo
iteration_state: {dtset: 1, }
dimensions: {natom: 6, nkpt: 30, mband: 60, nsppol: 1, nspinor: 1, nspden: 1, mpw: 8983, }
cutoff_energies: {ecut:  22.5, pawecutdg:  -1.0, }
electrons: {nelect:   1.02000000E+02, charge:   0.00000000E+00, occopt:   1.00000000E+00, tsmear:   1.00000000E-02, }
meta: {optdriver: 0, ionmov: 0, optcell: 0, iscf: 17, paral_kgb: 0, }
...

 Real(R)+Recip(G) space primitive vectors, cartesian coordinates (Bohr,Bohr^-1):
 R(1)=  7.7624317  0.0000000  0.0000000  G(1)=  0.1288256  0.0000000  0.0000000
 R(2)=  0.0000000  7.7624317  0.0000000  G(2)=  0.0000000  0.1288256  0.0000000
 R(3)=  0.0000000  0.0000000 29.1501816  G(3)=  0.0000000  0.0000000  0.0343051
 Unit cell volume ucvol=  1.7564543E+03 bohr^3
 Angles (23,13,12)=  9.00000000E+01  9.00000000E+01  9.00000000E+01 degrees

 getcut: wavevector=  0.0000  0.0000  0.0000  ngfft=  36  36 128
         ecut(hartree)=     22.500   => boxcut(ratio)=   2.05642

--- Pseudopotential description ------------------------------------------------
- pspini: atom type   1  psp file is ../../../Psps_for_tests/ATOMICDATA_NC/Sn.psp8
- pspatm: opening atomic psp file    ../../../Psps_for_tests/ATOMICDATA_NC/Sn.psp8
- Sn    ONCVPSP  r_core=  2.27  2.62  1.86
- 50.00000  14.00000    150810                znucl, zion, pspdat
    8   11    2    4       600   0.00000      pspcod,pspxc,lmax,lloc,mmax,r2well
    5.99000000000000    6.50000000000000    0.00000000000000   rchrg,fchrg,qchrg
     nproj     2     2     2
     extension_switch     1
  pspatm : epsatm=   32.65190642
         --- l  ekb(1:nproj) -->
             0    5.462393    0.682281
             1    4.443814    0.825686
             2   -5.382195   -1.704077
 pspatm: atomic psp has been read  and splines computed

- pspini: atom type   2  psp file is ../../../Psps_for_tests/ATOMICDATA_NC/Se.psp8
- pspatm: opening atomic psp file    ../../../Psps_for_tests/ATOMICDATA_NC/Se.psp8
- Se    ONCVPSP  r_core=  1.82  1.50  1.91
- 34.00000  16.00000    150729                znucl, zion, pspdat
    8   11    2    4       600   0.00000      pspcod,pspxc,lmax,lloc,mmax,r2well
    5.99000000000000    5.00000000000000    0.00000000000000   rchrg,fchrg,qchrg
     nproj     2     2     2
     extension_switch     1
  pspatm : epsatm=   29.53325930
         --- l  ekb(1:nproj) -->
             0    8.612261    0.939919
             1    6.984962    1.281898
             2   -9.322521   -3.856218
 pspatm: atomic psp has been read  and splines computed

- pspini: atom type   3  psp file is ../../../Psps_for_tests/ATOMICDATA_NC/Zn.psp8
- pspatm: opening atomic psp file    ../../../Psps_for_tests/ATOMICDATA_NC/Zn.psp8
- Zn    ONCVPSP  r_core=  1.36  1.66  1.85
- 30.00000  20.00000    161102                znucl, zion, pspdat
    8   11    2    4       600   0.00000      pspcod,pspxc,lmax,lloc,mmax,r2well
    5.99000000000000    2.50000000000000    0.00000000000000   rchrg,fchrg,qchrg
     nproj     2     2     2
     extension_switch     1
  pspatm : epsatm=   26.67245340
         --- l  ekb(1:nproj) -->
             0    2.404235   -1.533451
             1   -4.677427   -1.530630
             2   -7.000316   -2.622858
 pspatm: atomic psp has been read  and splines computed

   1.78088523E+04                                ecore*ucvol(ha*bohr**3)
--------------------------------------------------------------------------------

_setup2: Arith. and geom. avg. npw (full set) are    8954.140    8954.134

================================================================================

--- !BeginCycle
iteration_state: {dtset: 1, }
solver: {iscf: 17, nstep: 1000, nline: 4, wfoptalg: 0, }
tolerances: {tolwfr: 1.00E-20, }
...

     iter   Etot(hartree)      deltaE(h)  residm     nres2
 ETOT  1  -847.17946818214    -8.472E+02 1.008E+00 1.401E+03
 ETOT  2  -890.01235342821    -4.283E+01 1.243E+00 2.965E+03
 ETOT  3  -856.76834525778     3.324E+01 2.539E+00 5.601E+02
 ETOT  4  -858.84843665090    -2.080E+00 1.365E-01 2.629E+02
 ETOT  5  -857.88521273306     9.632E-01 4.683E-02 1.802E+02
 ETOT  6  -857.03257014087     8.526E-01 3.960E-02 9.239E+01
 ETOT  7  -856.30444069138     7.281E-01 2.415E-02 1.909E+01
 ETOT  8  -856.13654758260     1.679E-01 1.647E-02 1.822E+00
 ETOT  9  -856.11316416266     2.338E-02 1.366E-02 1.732E+00
 ETOT 10  -856.10003034880     1.313E-02 7.831E-03 3.928E-01
 ETOT 11  -856.09829090520     1.739E-03 2.384E-03 6.968E-02
 ETOT 12  -856.09724129006     1.050E-03 1.188E-03 2.702E-02
 ETOT 13  -856.09642850922     8.128E-04 1.945E-03 1.031E-02
 ETOT 14  -856.09627745069     1.511E-04 7.306E-04 5.553E-03
 ETOT 15  -856.09615589720     1.216E-04 2.330E-03 2.411E-03
 ETOT 16  -856.09607790326     7.799E-05 1.314E-03 1.723E-03
 ETOT 17  -856.09606986724     8.036E-06 5.653E-03 8.349E-04
 ETOT 18  -856.09609364693    -2.378E-05 4.567E-03 4.286E-04
 ETOT 19  -856.09610754771    -1.390E-05 3.530E-03 2.039E-04
 ETOT 20  -856.09614748536    -3.994E-05 4.889E-04 6.521E-05
 ETOT 21  -856.09619256311    -4.508E-05 2.382E-04 8.674E-06
 ETOT 22  -856.09620022868    -7.666E-06 4.868E-04 1.333E-06
 ETOT 23  -856.09620156419    -1.336E-06 3.297E-04 1.315E-07
 ETOT 24  -856.09620164055    -7.636E-08 5.697E-04 1.871E-08
 ETOT 25  -856.09620165065    -1.010E-08 2.755E-04 5.092E-09
 ETOT 26  -856.09620165155    -9.070E-10 3.933E-04 1.741E-09
 ETOT 27  -856.09620165228    -7.274E-10 2.446E-04 4.274E-10
 ETOT 28  -856.09620165252    -2.399E-10 2.332E-04 1.183E-10
 ETOT 29  -856.09620165253    -7.958E-12 4.755E-04 3.323E-11
 ETOT 30  -856.09620165260    -7.640E-11 3.377E-04 4.596E-12
 ETOT 31  -856.09620165255     5.502E-11 5.478E-04 2.384E-12
 ETOT 32  -856.09620165258    -2.888E-11 2.766E-04 8.085E-13
 ETOT 33  -856.09620165257     7.503E-12 3.125E-04 3.066E-13
 ETOT 34  -856.09620165259    -2.069E-11 1.330E-04 8.473E-14
 ETOT 35  -856.09620165259    -9.095E-13 1.097E-04 2.519E-14
 ETOT 36  -856.09620165260    -6.821E-12 4.506E-05 1.575E-15
 ETOT 37  -856.09620165262    -2.433E-11 3.529E-05 3.327E-16
 ETOT 38  -856.09620165266    -4.047E-11 3.475E-05 6.411E-17
 ETOT 39  -856.09620165260     6.548E-11 2.793E-05 2.421E-17
 ETOT 40  -856.09620165261    -7.049E-12 2.744E-05 1.043E-17
 ETOT 41  -856.09620165257     3.456E-11 2.143E-05 2.076E-18
 ETOT 42  -856.09620165259    -2.274E-11 2.106E-05 6.702E-19
 ETOT 43  -856.09620165262    -3.138E-11 1.607E-05 3.401E-19
 ETOT 44  -856.09620165261     1.933E-11 1.582E-05 4.371E-20
 ETOT 45  -856.09620165263    -2.888E-11 1.186E-05 8.794E-21
 ETOT 46  -856.09620165265    -1.523E-11 1.171E-05 3.360E-21
 ETOT 47  -856.09620165266    -7.503E-12 8.650E-06 2.688E-22
 ETOT 48  -856.09620165267    -1.455E-11 8.565E-06 2.888E-23
 ETOT 49  -856.09620165266     7.049E-12 6.256E-06 1.260E-23
 ETOT 50  -856.09620165266     2.501E-12 6.214E-06 5.753E-24
 ETOT 51  -856.09620165267    -3.411E-12 4.498E-06 2.116E-24
 ETOT 52  -856.09620165267     0.000E+00 4.482E-06 4.933E-25
 ETOT 53  -856.09620165267    -2.274E-12 3.220E-06 9.720E-26
 ETOT 54  -856.09620165267    -4.320E-12 3.218E-06 3.181E-26
 ETOT 55  -856.09620165267     4.547E-13 2.299E-06 9.425E-27
 ETOT 56  -856.09620165267     6.821E-13 2.303E-06 5.772E-27
 ETOT 57  -856.09620165267     2.274E-13 1.637E-06 7.730E-27
 ETOT 58  -856.09620165267     4.547E-13 1.644E-06 3.293E-27
 ETOT 59  -856.09620165267    -9.095E-13 1.165E-06 1.025E-26
 ETOT 60  -856.09620165267     4.547E-13 1.281E-06 5.223E-27
 ETOT 61  -856.09620165267     2.274E-13 1.381E-06 9.865E-27
 ETOT 62  -856.09620165267    -6.821E-13 1.706E-06 1.421E-26
 ETOT 63  -856.09620165267     9.095E-13 1.837E-06 4.068E-27
 ETOT 64  -856.09620165267    -4.547E-13 2.268E-06 4.692E-27
 ETOT 65  -856.09620165267    -2.274E-13 2.439E-06 4.221E-27
 ETOT 66  -856.09620165267     2.274E-13 3.013E-06 2.160E-26
 ETOT 67  -856.09620165267     2.274E-13 3.233E-06 4.600E-27
 ETOT 68  -856.09620165267    -4.547E-13 3.993E-06 8.848E-27
 ETOT 69  -856.09620165267     6.821E-13 4.275E-06 1.918E-26
 ETOT 70  -856.09620165267     2.274E-13 5.280E-06 2.687E-26
 ETOT 71  -856.09620165267    -6.821E-13 5.635E-06 4.330E-27
 ETOT 72  -856.09620165267     9.095E-13 6.956E-06 2.363E-26
 ETOT 73  -856.09620165267     4.547E-13 7.394E-06 1.973E-26
 ETOT 74  -856.09620165267    -1.364E-12 9.121E-06 2.095E-26
 ETOT 75  -856.09620165267     4.547E-13 9.645E-06 6.851E-27
 ETOT 76  -856.09620165267     6.821E-13 1.189E-05 6.088E-27
 ETOT 77  -856.09620165267     0.000E+00 1.248E-05 7.309E-27
 ETOT 78  -856.09620165267     0.000E+00 1.536E-05 8.789E-27
 ETOT 79  -856.09620165267     2.274E-13 1.599E-05 1.956E-26
 ETOT 80  -856.09620165267     2.274E-13 1.963E-05 1.966E-26
 ETOT 81  -856.09620165267    -1.137E-12 2.020E-05 2.138E-26
 ETOT 82  -856.09620165267     6.821E-13 2.471E-05 3.785E-26
 ETOT 83  -856.09620165267    -9.095E-13 2.505E-05 3.774E-26
 ETOT 84  -856.09620165267     1.364E-12 3.049E-05 6.443E-26
 ETOT 85  -856.09620165267     6.821E-13 3.034E-05 1.566E-25
 ETOT 86  -856.09620165267    -9.095E-13 3.667E-05 1.075E-25
 ETOT 87  -856.09620165267     9.095E-13 3.563E-05 2.362E-25
 ETOT 88  -856.09620165267    -1.137E-12 4.261E-05 1.883E-25
 ETOT 89  -856.09620165267     9.095E-13 4.023E-05 3.071E-25
 ETOT 90  -856.09620165267    -4.547E-13 4.737E-05 3.531E-25
 ETOT 91  -856.09620165267     0.000E+00 4.326E-05 3.955E-25
 ETOT 92  -856.09620165267     2.274E-13 4.983E-05 4.479E-25
 ETOT 93  -856.09620165267    -6.821E-13 4.385E-05 7.361E-25
 ETOT 94  -856.09620165267    -9.095E-13 4.904E-05 6.753E-25
 ETOT 95  -856.09620165267     1.137E-12 4.151E-05 1.006E-24
 ETOT 96  -856.09620165267     4.547E-13 4.479E-05 9.592E-25
 ETOT 97  -856.09620165267    -6.821E-13 3.650E-05 1.391E-24
 ETOT 98  -856.09620165267     2.046E-12 3.798E-05 1.554E-24
 ETOT 99  -856.09620165267    -9.095E-13 2.990E-05 1.431E-24
 ETOT  100  -856.09620165267    -4.547E-13 3.012E-05 1.501E-24
 ETOT  101  -856.09620165267     2.274E-13 2.305E-05 1.966E-24
 ETOT  102  -856.09620165267     0.000E+00 2.265E-05 1.790E-24
 ETOT  103  -856.09620165267     2.274E-12 1.696E-05 2.628E-24
 ETOT  104  -856.09620165267    -6.139E-12 1.638E-05 8.422E-24
 ETOT  105  -856.09620165267     4.547E-13 1.207E-05 5.750E-24
 ETOT  106  -856.09620165267     3.411E-12 1.152E-05 2.944E-25
 ETOT  107  -856.09620165267    -2.046E-12 8.392E-06 1.256E-25
 ETOT  108  -856.09620165267     1.137E-12 7.952E-06 3.412E-26
 ETOT  109  -856.09620165267     0.000E+00 5.744E-06 1.525E-26
 ETOT  110  -856.09620165267     0.000E+00 5.420E-06 1.786E-26
 ETOT  111  -856.09620165267     6.821E-13 3.891E-06 1.605E-26
 ETOT  112  -856.09620165267    -1.137E-12 3.663E-06 8.526E-27
 ETOT  113  -856.09620165267    -2.274E-13 2.618E-06 8.777E-27
 ETOT  114  -856.09620165267     2.274E-13 2.462E-06 6.132E-27
 ETOT  115  -856.09620165267     4.547E-13 1.754E-06 1.003E-26
 ETOT  116  -856.09620165267     2.274E-13 1.649E-06 1.449E-26
 ETOT  117  -856.09620165267     0.000E+00 1.173E-06 1.219E-26
 ETOT  118  -856.09620165267     2.274E-13 1.102E-06 1.422E-26
 ETOT  119  -856.09620165267    -6.821E-13 7.830E-07 5.547E-26
 ETOT  120  -856.09620165267    -2.274E-13 7.363E-07 2.639E-26
 ETOT  121  -856.09620165267     9.095E-13 5.227E-07 5.875E-26
 ETOT  122  -856.09620165267    -6.821E-13 4.917E-07 1.936E-26
 ETOT  123  -856.09620165267     1.364E-12 3.490E-07 4.582E-26
 ETOT  124  -856.09620165267    -1.819E-12 3.284E-07 6.460E-26
 ETOT  125  -856.09620165267     2.274E-13 2.331E-07 3.164E-26
 ETOT  126  -856.09620165267     2.274E-13 2.194E-07 4.429E-26
 ETOT  127  -856.09620165267    -2.274E-13 1.558E-07 7.873E-27
 ETOT  128  -856.09620165267     0.000E+00 1.467E-07 5.756E-27
 ETOT  129  -856.09620165267     9.095E-13 1.042E-07 3.768E-27
 ETOT  130  -856.09620165267    -2.274E-13 9.812E-08 1.049E-26
 ETOT  131  -856.09620165267    -4.547E-13 6.970E-08 6.361E-27
 ETOT  132  -856.09620165267     0.000E+00 6.566E-08 3.434E-27
 ETOT  133  -856.09620165267     0.000E+00 4.665E-08 9.332E-27
 ETOT  134  -856.09620165267     2.274E-13 4.396E-08 5.653E-27
 ETOT  135  -856.09620165267     0.000E+00 3.123E-08 1.695E-26
 ETOT  136  -856.09620165267     2.274E-13 2.944E-08 6.785E-27
 ETOT  137  -856.09620165267     2.274E-13 2.092E-08 4.952E-27
 ETOT  138  -856.09620165267     0.000E+00 1.972E-08 2.822E-27
 ETOT  139  -856.09620165267     2.274E-13 1.401E-08 4.407E-27
 ETOT  140  -856.09620165267    -2.274E-13 1.321E-08 3.578E-27
 ETOT  141  -856.09620165267     2.274E-13 9.387E-09 8.494E-27
 ETOT  142  -856.09620165267    -4.547E-13 8.855E-09 3.014E-27
 ETOT  143  -856.09620165267     2.274E-13 6.290E-09 2.226E-26
 ETOT  144  -856.09620165267    -4.547E-13 5.935E-09 6.170E-27
 ETOT  145  -856.09620165267     6.821E-13 4.216E-09 1.052E-26
 ETOT  146  -856.09620165267     0.000E+00 3.979E-09 5.247E-27
 ETOT  147  -856.09620165267     0.000E+00 2.825E-09 3.560E-27
 ETOT  148  -856.09620165267    -6.821E-13 2.667E-09 2.368E-27
 ETOT  149  -856.09620165267     4.547E-13 1.894E-09 7.547E-27
 ETOT  150  -856.09620165267    -6.821E-13 1.788E-09 2.416E-27
 ETOT  151  -856.09620165267     6.821E-13 1.270E-09 3.620E-27
 ETOT  152  -856.09620165267     0.000E+00 1.199E-09 1.617E-26
 ETOT  153  -856.09620165267    -2.274E-13 8.511E-10 2.450E-27
 ETOT  154  -856.09620165267    -2.274E-13 8.040E-10 2.002E-27
 ETOT  155  -856.09620165267     2.274E-13 5.706E-10 1.422E-26
 ETOT  156  -856.09620165267     2.274E-13 5.391E-10 2.446E-27
 ETOT  157  -856.09620165267    -4.547E-13 3.826E-10 2.086E-27
 ETOT  158  -856.09620165267     2.274E-13 3.615E-10 1.084E-26
 ETOT  159  -856.09620165267     4.547E-13 2.565E-10 2.030E-26
 ETOT  160  -856.09620165267    -2.274E-13 2.424E-10 4.195E-27
 ETOT  161  -856.09620165267    -4.547E-13 1.720E-10 1.804E-26
 ETOT  162  -856.09620165267     1.137E-12 1.626E-10 1.163E-26
 ETOT  163  -856.09620165267     2.274E-13 1.153E-10 3.123E-27
 ETOT  164  -856.09620165267    -4.547E-13 1.090E-10 6.521E-27
 ETOT  165  -856.09620165267     0.000E+00 7.733E-11 2.909E-27
 ETOT  166  -856.09620165267     0.000E+00 7.312E-11 4.092E-27
 ETOT  167  -856.09620165267     2.274E-13 5.186E-11 4.737E-27
 ETOT  168  -856.09620165267    -6.821E-13 4.904E-11 2.539E-27
 ETOT  169  -856.09620165267     0.000E+00 3.477E-11 4.526E-27
 ETOT  170  -856.09620165267    -2.274E-13 3.289E-11 4.742E-27
 ETOT  171  -856.09620165267     0.000E+00 2.332E-11 6.107E-27
 ETOT  172  -856.09620165267     6.821E-13 2.206E-11 4.617E-27
 ETOT  173  -856.09620165267    -2.274E-13 1.564E-11 3.110E-27
 ETOT  174  -856.09620165267     2.274E-13 1.479E-11 5.997E-27
 ETOT  175  -856.09620165267    -6.821E-13 1.049E-11 3.124E-27
 ETOT  176  -856.09620165267     4.547E-13 9.921E-12 3.383E-27
 ETOT  177  -856.09620165267     6.821E-13 7.033E-12 6.301E-27
 ETOT  178  -856.09620165267    -6.821E-13 6.654E-12 2.242E-27
 ETOT  179  -856.09620165267     0.000E+00 4.716E-12 1.873E-27
 ETOT  180  -856.09620165267    -2.274E-13 4.463E-12 2.488E-27
 ETOT  181  -856.09620165267     4.547E-13 3.163E-12 1.751E-27
 ETOT  182  -856.09620165267    -9.095E-13 2.993E-12 1.296E-26
 ETOT  183  -856.09620165267     1.137E-12 2.121E-12 3.125E-27
 ETOT  184  -856.09620165267    -6.821E-13 2.008E-12 2.057E-27
 ETOT  185  -856.09620165267    -2.274E-13 1.423E-12 1.458E-26
 ETOT  186  -856.09620165267     4.547E-13 1.347E-12 1.165E-26
 ETOT  187  -856.09620165267     6.821E-13 9.541E-13 1.803E-27
 ETOT  188  -856.09620165267    -6.821E-13 9.032E-13 3.352E-27
 ETOT  189  -856.09620165267    -6.821E-13 6.399E-13 5.774E-27
 ETOT  190  -856.09620165267     6.821E-13 6.058E-13 7.714E-27
 ETOT  191  -856.09620165267     0.000E+00 4.292E-13 5.590E-27
 ETOT  192  -856.09620165267    -2.274E-13 4.063E-13 1.242E-26
 ETOT  193  -856.09620165267     6.821E-13 2.878E-13 2.717E-27
 ETOT  194  -856.09620165267     0.000E+00 2.725E-13 1.719E-27
 ETOT  195  -856.09620165267    -2.274E-13 1.930E-13 1.516E-26
 ETOT  196  -856.09620165267     2.274E-13 1.828E-13 4.547E-27
 ETOT  197  -856.09620165267    -4.547E-13 1.295E-13 1.786E-27
 ETOT  198  -856.09620165267     6.821E-13 1.226E-13 2.308E-27
 ETOT  199  -856.09620165267    -2.274E-13 8.684E-14 3.736E-27
 ETOT  200  -856.09620165267    -2.274E-13 8.224E-14 3.045E-27
 ETOT  201  -856.09620165267     0.000E+00 5.824E-14 5.508E-27
 ETOT  202  -856.09620165267    -4.547E-13 5.516E-14 3.066E-26
 ETOT  203  -856.09620165267     0.000E+00 3.906E-14 6.027E-27
 ETOT  204  -856.09620165267     0.000E+00 3.700E-14 5.037E-27
 ETOT  205  -856.09620165267     6.821E-13 2.620E-14 2.081E-26
 ETOT  206  -856.09620165267    -2.274E-13 2.482E-14 4.106E-27
 ETOT  207  -856.09620165267    -4.547E-13 1.757E-14 2.437E-27
 ETOT  208  -856.09620165267     0.000E+00 1.665E-14 7.661E-27
 ETOT  209  -856.09620165267     6.821E-13 1.179E-14 6.142E-27
 ETOT  210  -856.09620165267    -6.821E-13 1.117E-14 2.833E-27
 ETOT  211  -856.09620165267     4.547E-13 7.906E-15 4.469E-27
 ETOT  212  -856.09620165267    -4.547E-13 7.490E-15 8.478E-27
 ETOT  213  -856.09620165267     0.000E+00 5.303E-15 4.225E-27
 ETOT  214  -856.09620165267     2.274E-13 5.024E-15 5.118E-27
 ETOT  215  -856.09620165267    -2.274E-13 3.557E-15 1.521E-26
 ETOT  216  -856.09620165267     6.821E-13 3.370E-15 3.610E-27
 ETOT  217  -856.09620165267    -2.274E-13 2.386E-15 2.436E-27
 ETOT  218  -856.09620165267     2.274E-13 2.260E-15 2.092E-27
 ETOT  219  -856.09620165267    -2.274E-13 1.600E-15 4.776E-27
 ETOT  220  -856.09620165267    -2.274E-13 1.516E-15 3.473E-27
 ETOT  221  -856.09620165267     2.274E-13 1.073E-15 4.549E-27
 ETOT  222  -856.09620165267    -2.274E-13 1.017E-15 2.562E-27
 ETOT  223  -856.09620165267     0.000E+00 7.199E-16 1.618E-26
 ETOT  224  -856.09620165267     4.547E-13 6.822E-16 3.182E-27
 ETOT  225  -856.09620165267    -2.274E-13 4.829E-16 7.606E-27
 ETOT  226  -856.09620165267    -4.547E-13 4.576E-16 1.680E-27
 ETOT  227  -856.09620165267     4.547E-13 3.239E-16 6.253E-27
 ETOT  228  -856.09620165267     0.000E+00 3.070E-16 3.898E-27
 ETOT  229  -856.09620165267     2.274E-13 2.172E-16 6.766E-27
 ETOT  230  -856.09620165267    -4.547E-13 2.059E-16 5.644E-27
 ETOT  231  -856.09620165267     6.821E-13 1.457E-16 4.763E-27
 ETOT  232  -856.09620165267    -4.547E-13 1.381E-16 8.137E-27
 ETOT  233  -856.09620165267    -4.547E-13 9.774E-17 8.063E-27
 ETOT  234  -856.09620165267     4.547E-13 9.265E-17 6.062E-27
 ETOT  235  -856.09620165267     0.000E+00 6.556E-17 1.984E-27
 ETOT  236  -856.09620165267     4.547E-13 6.215E-17 1.364E-26
 ETOT  237  -856.09620165267    -9.095E-13 4.398E-17 7.513E-27
 ETOT  238  -856.09620165267     0.000E+00 4.169E-17 1.510E-27
 ETOT  239  -856.09620165267     9.095E-13 2.950E-17 6.026E-27
 ETOT  240  -856.09620165267    -2.274E-13 2.796E-17 5.168E-27
 ETOT  241  -856.09620165267     0.000E+00 1.979E-17 1.940E-26
 ETOT  242  -856.09620165267     0.000E+00 1.876E-17 3.987E-27
 ETOT  243  -856.09620165267    -9.095E-13 1.327E-17 1.764E-26
 ETOT  244  -856.09620165267     4.547E-13 1.258E-17 4.965E-27
 ETOT  245  -856.09620165267     4.547E-13 8.902E-18 1.165E-26
 ETOT  246  -856.09620165267     0.000E+00 8.441E-18 1.703E-26
 ETOT  247  -856.09620165267    -2.274E-13 5.972E-18 1.961E-27
 ETOT  248  -856.09620165267    -4.547E-13 5.662E-18 1.943E-27
 ETOT  249  -856.09620165267     6.821E-13 4.006E-18 2.650E-27
 ETOT  250  -856.09620165267    -6.821E-13 3.798E-18 1.108E-26
 ETOT  251  -856.09620165267     0.000E+00 2.687E-18 1.952E-27
 ETOT  252  -856.09620165267     4.547E-13 2.548E-18 2.612E-27
 ETOT  253  -856.09620165267    -2.274E-13 1.802E-18 5.484E-27
 ETOT  254  -856.09620165267     2.274E-13 1.709E-18 3.274E-27
 ETOT  255  -856.09620165267    -2.274E-13 1.209E-18 3.968E-27
 ETOT  256  -856.09620165267     4.547E-13 1.146E-18 3.024E-27
 ETOT  257  -856.09620165267    -6.821E-13 8.109E-19 3.296E-27
 ETOT  258  -856.09620165267     4.547E-13 7.691E-19 6.922E-27
 ETOT  259  -856.09620165267    -2.274E-13 5.440E-19 3.946E-27
 ETOT  260  -856.09620165267    -2.274E-13 5.159E-19 5.561E-27
 ETOT  261  -856.09620165267     2.274E-13 3.649E-19 1.974E-27
 ETOT  262  -856.09620165267    -2.274E-13 3.461E-19 2.559E-27
 ETOT  263  -856.09620165267     6.821E-13 2.448E-19 7.024E-27
 ETOT  264  -856.09620165267    -2.274E-13 2.321E-19 5.225E-27
 ETOT  265  -856.09620165267     0.000E+00 1.642E-19 4.776E-27
 ETOT  266  -856.09620165267     0.000E+00 1.557E-19 1.592E-26
 ETOT  267  -856.09620165267     0.000E+00 1.101E-19 2.661E-26
 ETOT  268  -856.09620165267    -6.821E-13 1.045E-19 2.538E-26
 ETOT  269  -856.09620165267     9.095E-13 7.388E-20 1.097E-26
 ETOT  270  -856.09620165267    -4.547E-13 7.008E-20 1.629E-27
 ETOT  271  -856.09620165267     0.000E+00 4.956E-20 1.009E-26
 ETOT  272  -856.09620165267     4.547E-13 4.701E-20 3.147E-27
 ETOT  273  -856.09620165267    -2.274E-13 3.324E-20 4.062E-27
 ETOT  274  -856.09620165267     0.000E+00 3.153E-20 4.548E-27
 ETOT  275  -856.09620165267    -2.274E-13 9.980E-21 1.188E-26

 At SCF step  275   max residual=  9.98E-21 < tolwfr=  1.00E-20 =>converged.

 Cartesian components of stress tensor (hartree/bohr^3)
  sigma(1 1)=  1.32135218E-02  sigma(3 2)=  0.00000000E+00
  sigma(2 2)=  1.32135218E-02  sigma(3 1)=  0.00000000E+00
  sigma(3 3)=  1.32363609E-02  sigma(2 1)=  0.00000000E+00


--- !ResultsGS
iteration_state: {dtset: 1, }
comment   : Summary of ground state results
lattice_vectors:
- [  7.7624317,   0.0000000,   0.0000000, ]
- [  0.0000000,   7.7624317,   0.0000000, ]
- [  0.0000000,   0.0000000,  29.1501816, ]
lattice_lengths: [   7.76243,    7.76243,   29.15018, ]
lattice_angles: [ 90.000,  90.000,  90.000, ] # degrees, (23, 13, 12)
lattice_volume:   1.7564543E+03
convergence: {deltae: -2.274E-13, res2:  1.188E-26, residm:  9.980E-21, diffor: null, }
etotal    :  -8.56096202E+02
entropy   :   0.00000000E+00
fermie    :   4.82269891E-02
cartesian_stress_tensor: # hartree/bohr^3
- [  1.32135218E-02,   0.00000000E+00,   0.00000000E+00, ]
- [  0.00000000E+00,   1.32135218E-02,   0.00000000E+00, ]
- [  0.00000000E+00,   0.00000000E+00,   1.32363609E-02, ]
pressure_GPa:  -3.8898E+02
xred      :
- [  5.0000E-01,   0.0000E+00,   3.0251E-01, Sn]
- [  0.0000E+00,   5.0000E-01,   3.0457E-01, Se]
- [  5.0000E-01,   0.0000E+00,   5.0365E-01, Se]
- [  0.0000E+00,   5.0000E-01,   6.9749E-01, Se]
- [  5.0000E-01,   5.0000E-01,   6.0057E-01, Zn]
- [  0.0000E+00,   0.0000E+00,   6.0057E-01, Zn]
cartesian_forces: # hartree/bohr
- [ -0.00000000E+00,  -0.00000000E+00,  -7.97962447E-03, ]
- [ -0.00000000E+00,  -0.00000000E+00,   4.97255393E-03, ]
- [ -0.00000000E+00,  -0.00000000E+00,   8.23562927E-03, ]
- [ -0.00000000E+00,  -0.00000000E+00,  -1.16457753E-02, ]
- [ -0.00000000E+00,  -0.00000000E+00,   3.20860827E-03, ]
- [ -0.00000000E+00,  -0.00000000E+00,   3.20860827E-03, ]
force_length_stats: {min:   3.20860827E-03, max:   1.16457753E-02, mean:   6.54179991E-03, }
...

 Integrated electronic density in atomic spheres:
 ------------------------------------------------
 Atom  Sphere_radius  Integrated_density
    1        2.00000         10.53997928
    2        2.00000         13.25503578
    3        2.00000         13.24505978
    4        2.00000         13.28206769
    5        2.00000         18.10757721
    6        2.00000         18.10757721
================================================================================

 ----iterations are completed or convergence reached----

 Mean square residual over all n,k,spin=   38.983E-22; max=  99.798E-22
 reduced coordinates (array xred) for    6 atoms
       0.500000000000      0.000000000000      0.302514000000
       0.000000000000      0.500000000000      0.304574000000
       0.500000000000      0.000000000000      0.503651000000
       0.000000000000      0.500000000000      0.697486000000
       0.500000000000      0.500000000000      0.600569000000
       0.000000000000      0.000000000000      0.600569000000
 rms dE/dt=  1.2899E-01; max dE/dt=  2.6418E-01; dE/dt below (all hartree)
    1       0.000000000000      0.000000000000      0.157311605244
    2       0.000000000000      0.000000000000     -0.220246747489
    3       0.000000000000      0.000000000000     -0.315365986119
    4       0.000000000000      0.000000000000      0.264180566461
    5       0.000000000000      0.000000000000     -0.168827411045
    6       0.000000000000      0.000000000000     -0.168827411045

 cartesian coordinates (angstrom) at end:
    1      2.05385096425820     0.00000000000000     4.66646350736065
    2      0.00000000000000     2.05385096425820     4.69824026752766
    3      2.05385096425820     0.00000000000000     7.76912477421110
    4      0.00000000000000     2.05385096425820    10.75914822419772
    5      2.05385096425820     2.05385096425820     9.26414421201027
    6      0.00000000000000     0.00000000000000     9.26414421201027

 cartesian forces (hartree/bohr) at end:
    1     -0.00000000000000    -0.00000000000000    -0.00797962447470
    2     -0.00000000000000    -0.00000000000000     0.00497255393197
    3     -0.00000000000000    -0.00000000000000     0.00823562926781
    4     -0.00000000000000    -0.00000000000000    -0.01164577526121
    5     -0.00000000000000    -0.00000000000000     0.00320860826806
    6     -0.00000000000000    -0.00000000000000     0.00320860826806
 frms,max,avg= 4.1662713E-03 1.1645775E-02   0.000E+00  0.000E+00  2.583E-03 h/b

 cartesian forces (eV/Angstrom) at end:
    1     -0.00000000000000    -0.00000000000000    -0.41032875398829
    2     -0.00000000000000    -0.00000000000000     0.25569898251660
    3     -0.00000000000000    -0.00000000000000     0.42349304863694
    4     -0.00000000000000    -0.00000000000000    -0.59884979140425
    5     -0.00000000000000    -0.00000000000000     0.16499325711950
    6     -0.00000000000000    -0.00000000000000     0.16499325711950
 frms,max,avg= 2.1423827E-01 5.9884979E-01   0.000E+00  0.000E+00  1.328E-01 e/A
 length scales=  7.762431680422  7.762431680422  7.762431680422 bohr
              =  4.107701928516  4.107701928516  4.107701928516 angstroms
 prteigrs : about to open file Cs2TiI6o_DS1_EIG
 Fermi (or HOMO) energy (hartree) =   0.04823   Average Vxc (hartree)=  -0.23388
 Eigenvalues (hartree) for nkpt=  30  k points:
 kpt#   1, nband= 60, wtk=  0.02000, kpt=  0.0500  0.0500  0.1250 (reduced coord)
  -4.84862   -4.84862   -3.08618   -3.08594   -3.08352   -3.08346   -3.08282   -3.08243
  -1.80035   -1.79904   -1.79794   -1.79787   -1.79722   -1.79361   -1.79331   -1.79179
  -1.78930   -1.78871   -1.72788   -1.72705   -1.72261   -1.72159   -1.72126   -0.76300
  -0.76029   -0.76019   -0.75671   -0.75652   -0.52193   -0.49568   -0.43895   -0.31114
  -0.31033   -0.30878   -0.30828   -0.30771   -0.29685   -0.29486   -0.29361   -0.28912
  -0.28838   -0.20394   -0.15686   -0.12327   -0.12158   -0.08505   -0.06118   -0.05593
  -0.04840   -0.04479   -0.03143    0.02977    0.05569    0.08326    0.12999    0.17026
   0.17238    0.18119    0.18391    0.20995
 prteigrs : prtvol=0 or 1, do not print more k-points.


--- !EnergyTerms
iteration_state     : {dtset: 1, }
comment             : Components of total free energy in Hartree
kinetic             :  4.51778353722622E+02
hartree             :  9.53588223581025E+02
xc                  : -1.37860472759110E+02
Ewald energy        :  2.40791015068043E+02
psp_core            :  1.01390925080127E+01
local_psp           : -2.10998028785786E+03
non_local_psp       : -2.64513740981754E+02
VdWaals_dft_d       : -3.83849335082636E-02
total_energy        : -8.56096201652526E+02
...


--- !EnergyTermsDC
iteration_state     : {dtset: 1, }
comment             : '"Double-counting" decomposition of free energy'
band_energy         : -1.28130398447175E+02
Ewald energy        :  2.40791015068043E+02
psp_core            :  1.01390925080127E+01
xc_dc               : -9.78857525848041E+02
VdWaals_dft_d       : -3.83849335082636E-02
total_energy_dc     : -8.56096201652669E+02
...


 Cartesian components of stress tensor (hartree/bohr^3)
  sigma(1 1)=  1.32135218E-02  sigma(3 2)=  0.00000000E+00
  sigma(2 2)=  1.32135218E-02  sigma(3 1)=  0.00000000E+00
  sigma(3 3)=  1.32363609E-02  sigma(2 1)=  0.00000000E+00

-Cartesian components of stress tensor (GPa)         [Pressure= -3.8898E+02 GPa]
- sigma(1 1)=  3.88755168E+02  sigma(3 2)=  0.00000000E+00
- sigma(2 2)=  3.88755168E+02  sigma(3 1)=  0.00000000E+00
- sigma(3 3)=  3.89427117E+02  sigma(2 1)=  0.00000000E+00

================================================================================
== DATASET  2 ==================================================================
-   mpi_nproc: 6, omp_nthreads: -1 (-1 if OMP is not activated)


--- !DatasetInfo
iteration_state: {dtset: 2, }
dimensions: {natom: 6, nkpt: 57, mband: 60, nsppol: 1, nspinor: 1, nspden: 1, mpw: 9023, }
cutoff_energies: {ecut:  22.5, pawecutdg:  -1.0, }
electrons: {nelect:   1.02000000E+02, charge:   0.00000000E+00, occopt:   1.00000000E+00, tsmear:   1.00000000E-02, }
meta: {optdriver: 0, ionmov: 0, optcell: 0, iscf: -2, paral_kgb: 0, }
...

 mkfilename : getden/=0, take file _DEN from output of DATASET   1.

 Real(R)+Recip(G) space primitive vectors, cartesian coordinates (Bohr,Bohr^-1):
 R(1)=  7.7624317  0.0000000  0.0000000  G(1)=  0.1288256  0.0000000  0.0000000
 R(2)=  0.0000000  7.7624317  0.0000000  G(2)=  0.0000000  0.1288256  0.0000000
 R(3)=  0.0000000  0.0000000 29.1501816  G(3)=  0.0000000  0.0000000  0.0343051
 Unit cell volume ucvol=  1.7564543E+03 bohr^3
 Angles (23,13,12)=  9.00000000E+01  9.00000000E+01  9.00000000E+01 degrees

 getcut: wavevector=  0.0000  0.0000  0.0000  ngfft=  36  36 128
         ecut(hartree)=     22.500   => boxcut(ratio)=   2.05642
--------------------------------------------------------------------------------


================================================================================
 prteigrs : about to open file Cs2TiI6o_DS2_EIG
 Non-SCF case, kpt    1 (  0.50000  0.50000  0.00000), residuals and eigenvalues=
  3.98E-21  6.15E-21  5.16E-21  7.45E-21  2.52E-21  2.86E-21  4.00E-21  5.02E-21
  4.01E-21  2.78E-21  1.35E-21  9.86E-21  1.62E-21  2.27E-21  4.22E-21  4.68E-21
  4.10E-21  1.85E-21  5.58E-21  5.68E-21  6.89E-21  6.70E-21  8.30E-21  7.53E-21
  7.73E-21  9.21E-21  5.41E-21  5.15E-21  3.95E-21  9.18E-21  5.28E-21  3.62E-21
  9.37E-21  3.15E-21  5.52E-21  7.02E-21  9.84E-21  7.46E-21  5.54E-21  6.43E-21
  3.70E-21  3.16E-21  4.92E-21  7.57E-21  3.09E-21  6.98E-21  4.86E-21  8.63E-21
  7.59E-21  4.89E-21  7.50E-21  1.86E-21  5.42E-21  7.46E-21  4.43E-21  1.72E-21
  3.81E-21  9.35E-21  4.34E-10  1.67E-08
 -4.8486E+00 -4.8486E+00 -3.0853E+00 -3.0849E+00 -3.0846E+00 -3.0846E+00
 -3.0844E+00 -3.0841E+00 -1.8013E+00 -1.8012E+00 -1.8012E+00 -1.7988E+00
 -1.7969E+00 -1.7937E+00 -1.7936E+00 -1.7936E+00 -1.7935E+00 -1.7930E+00
 -1.7271E+00 -1.7267E+00 -1.7252E+00 -1.7252E+00 -1.7252E+00 -7.6280E-01
 -7.6097E-01 -7.6097E-01 -7.5758E-01 -7.5573E-01 -4.9439E-01 -4.8941E-01
 -4.0502E-01 -3.1382E-01 -3.1382E-01 -3.0115E-01 -3.0115E-01 -2.9617E-01
 -2.9617E-01 -2.9572E-01 -2.9549E-01 -2.9540E-01 -2.9413E-01 -2.0221E-01
 -2.0221E-01 -1.9666E-01 -1.3331E-01 -1.3331E-01 -1.2321E-01 -1.2282E-01
 -1.1761E-01 -1.1761E-01 -7.1311E-03  7.1114E-02  1.0452E-01  1.0452E-01
  1.1292E-01  1.4343E-01  2.3199E-01  2.3199E-01  2.7515E-01  2.7515E-01
  prteigrs : nnsclo,ikpt=  300    1 max resid (incl. the buffer)=  1.66683E-08
 Non-SCF case, kpt    2 (  0.45000  0.45000  0.05000), residuals and eigenvalues=
  3.18E-21  3.97E-21  2.22E-21  1.90E-21  1.22E-21  1.25E-21  1.04E-21  9.89E-21
  2.58E-21  1.78E-21  4.70E-21  8.21E-21  3.09E-21  9.53E-21  4.85E-21  1.83E-21
  8.04E-21  2.00E-21  2.03E-21  1.32E-21  1.00E-20  1.50E-21  1.97E-21  3.37E-21
  4.68E-21  4.74E-21  6.56E-21  3.27E-21  5.04E-21  2.48E-21  2.82E-21  7.67E-21
  4.14E-21  7.24E-21  4.38E-21  7.07E-21  6.04E-21  9.12E-21  6.41E-21  3.15E-21
  7.91E-21  9.30E-21  8.71E-21  5.50E-21  8.51E-21  6.92E-21  8.61E-21  5.66E-21
  2.42E-21  3.10E-21  2.98E-21  1.87E-21  3.60E-21  5.25E-21  6.01E-21  7.49E-21
  2.54E-21  1.93E-21  3.43E-12  9.01E-08
 -4.8486E+00 -4.8486E+00 -3.0851E+00 -3.0845E+00 -3.0842E+00 -3.0841E+00
 -3.0838E+00 -3.0833E+00 -1.7996E+00 -1.7994E+00 -1.7980E+00 -1.7963E+00
 -1.7961E+00 -1.7937E+00 -1.7933E+00 -1.7926E+00 -1.7920E+00 -1.7905E+00
 -1.7271E+00 -1.7262E+00 -1.7239E+00 -1.7237E+00 -1.7216E+00 -7.6246E-01
 -7.6076E-01 -7.6057E-01 -7.5748E-01 -7.5564E-01 -4.9486E-01 -4.8984E-01
 -4.0588E-01 -3.1369E-01 -3.1213E-01 -3.0099E-01 -3.0091E-01 -2.9732E-01
 -2.9522E-01 -2.9483E-01 -2.9400E-01 -2.9387E-01 -2.9267E-01 -2.0561E-01
 -2.0093E-01 -1.9843E-01 -1.3342E-01 -1.3189E-01 -1.2669E-01 -1.1869E-01
 -1.1619E-01 -1.0444E-01 -7.8461E-03  7.1007E-02  1.0492E-01  1.0522E-01
  1.1439E-01  1.4366E-01  2.3326E-01  2.3725E-01  2.5923E-01  2.7390E-01
  prteigrs : nnsclo,ikpt=  300    2 max resid (incl. the buffer)=  9.00802E-08
 Non-SCF case, kpt    3 (  0.40000  0.40000  0.10000), residuals and eigenvalues=
  5.64E-21  3.44E-21  1.69E-21  2.08E-21  5.02E-21  8.85E-21  3.46E-21  6.21E-21
  5.42E-21  7.83E-21  2.49E-21  5.40E-21  1.11E-21  2.65E-21  8.46E-21  3.30E-21
  1.61E-21  6.37E-21  1.23E-21  2.02E-21  8.04E-21  6.82E-21  3.39E-21  9.07E-21
  4.51E-21  7.80E-21  8.51E-21  6.44E-21  9.51E-21  6.26E-21  9.23E-21  5.55E-21
  5.83E-21  5.17E-21  8.21E-21  9.27E-21  7.22E-21  6.45E-21  5.03E-21  5.78E-21
  6.49E-21  9.92E-21  4.57E-21  5.52E-21  8.21E-21  2.17E-21  3.86E-21  7.14E-21
  5.86E-21  3.43E-21  3.47E-21  6.57E-21  5.85E-21  6.28E-21  8.72E-21  3.45E-21
  3.93E-21  7.18E-21  1.92E-17  2.59E-08
 -4.8486E+00 -4.8486E+00 -3.0846E+00 -3.0841E+00 -3.0838E+00 -3.0831E+00
 -3.0830E+00 -3.0827E+00 -1.7973E+00 -1.7973E+00 -1.7958E+00 -1.7953E+00
 -1.7953E+00 -1.7915E+00 -1.7914E+00 -1.7911E+00 -1.7897E+00 -1.7885E+00
 -1.7256E+00 -1.7247E+00 -1.7217E+00 -1.7213E+00 -1.7197E+00 -7.6224E-01
 -7.6033E-01 -7.6012E-01 -7.5718E-01 -7.5552E-01 -4.9647E-01 -4.9077E-01
 -4.0842E-01 -3.1339E-01 -3.0901E-01 -3.0144E-01 -2.9988E-01 -2.9853E-01
 -2.9431E-01 -2.9396E-01 -2.9292E-01 -2.9189E-01 -2.9182E-01 -2.1368E-01
 -1.9923E-01 -1.9775E-01 -1.4176E-01 -1.2771E-01 -1.1852E-01 -1.1201E-01
 -1.0698E-01 -8.1529E-02 -1.0117E-02  7.1572E-02  1.0571E-01  1.0709E-01
  1.1822E-01  1.4533E-01  2.3236E-01  2.3693E-01  2.4556E-01  2.6285E-01
  prteigrs : nnsclo,ikpt=  300    3 max resid (incl. the buffer)=  2.59057E-08
 Non-SCF case, kpt    4 (  0.35000  0.35000  0.15000), residuals and eigenvalues=
  3.21E-21  4.07E-21  1.99E-21  6.34E-21  1.31E-21  1.40E-21  8.91E-21  3.53E-21
  7.77E-21  1.80E-21  6.45E-21  4.20E-21  9.18E-21  1.77E-21  4.01E-21  8.54E-21
  3.45E-21  1.10E-21  2.24E-21  1.98E-21  6.26E-21  6.07E-21  1.41E-21  9.29E-21
  3.20E-21  6.13E-21  3.96E-21  1.90E-21  9.26E-21  4.38E-21  3.67E-21  8.43E-21
  7.81E-21  4.20E-21  6.91E-21  9.18E-21  5.47E-21  6.41E-21  4.03E-21  8.43E-21
  8.70E-21  5.73E-21  5.92E-21  9.83E-21  2.08E-21  6.71E-21  3.98E-21  5.92E-21
  4.75E-21  2.51E-21  3.00E-21  7.51E-21  2.29E-21  2.81E-21  3.22E-21  2.97E-21
  7.14E-21  5.01E-21  1.74E-14  5.61E-09
 -4.8486E+00 -4.8486E+00 -3.0856E+00 -3.0842E+00 -3.0841E+00 -3.0835E+00
 -3.0829E+00 -3.0826E+00 -1.7981E+00 -1.7980E+00 -1.7967E+00 -1.7959E+00
 -1.7957E+00 -1.7920E+00 -1.7919E+00 -1.7911E+00 -1.7906E+00 -1.7904E+00
 -1.7264E+00 -1.7252E+00 -1.7226E+00 -1.7222E+00 -1.7206E+00 -7.6218E-01
 -7.6051E-01 -7.6046E-01 -7.5711E-01 -7.5571E-01 -4.9950E-01 -4.9175E-01
 -4.1241E-01 -3.1420E-01 -3.0513E-01 -3.0264E-01 -3.0073E-01 -3.0053E-01
 -2.9604E-01 -2.9488E-01 -2.9385E-01 -2.9280E-01 -2.9192E-01 -2.2043E-01
 -1.9867E-01 -1.9252E-01 -1.4752E-01 -1.2103E-01 -1.0988E-01 -1.0536E-01
 -9.4886E-02 -5.0243E-02 -1.3940E-02  7.3502E-02  1.0622E-01  1.1174E-01
  1.2284E-01  1.4777E-01  1.9908E-01  2.3162E-01  2.4173E-01  2.5417E-01
  prteigrs : nnsclo,ikpt=  300    4 max resid (incl. the buffer)=  5.61046E-09
 Non-SCF case, kpt    5 (  0.30000  0.30000  0.20000), residuals and eigenvalues=
  4.19E-21  9.26E-21  2.01E-21  1.31E-21  5.79E-21  1.49E-21  4.70E-21  9.51E-21
  1.86E-21  5.04E-21  1.51E-21  7.53E-21  2.10E-21  2.16E-21  7.93E-21  6.55E-21
  2.01E-21  2.43E-21  7.26E-21  6.29E-21  8.34E-21  9.29E-21  1.83E-21  9.57E-21
  6.18E-21  3.12E-21  4.45E-21  8.73E-21  7.06E-21  4.12E-21  2.74E-21  8.81E-21
  4.29E-21  2.88E-21  9.88E-21  4.32E-21  2.73E-21  9.39E-21  8.83E-21  6.47E-21
  4.51E-21  8.52E-21  8.50E-21  4.58E-21  2.52E-21  5.66E-21  9.47E-21  3.30E-21
  2.34E-21  5.94E-21  3.94E-21  7.99E-21  3.83E-21  9.75E-21  2.49E-21  9.54E-21
  3.67E-21  5.41E-21  6.56E-14  1.43E-10
 -4.8486E+00 -4.8486E+00 -3.0849E+00 -3.0844E+00 -3.0837E+00 -3.0834E+00
 -3.0831E+00 -3.0829E+00 -1.7981E+00 -1.7980E+00 -1.7974E+00 -1.7961E+00
 -1.7940E+00 -1.7936E+00 -1.7911E+00 -1.7904E+00 -1.7902E+00 -1.7893E+00
 -1.7278E+00 -1.7233E+00 -1.7218E+00 -1.7216E+00 -1.7211E+00 -7.6234E-01
 -7.6034E-01 -7.6034E-01 -7.5715E-01 -7.5555E-01 -5.0360E-01 -4.9254E-01
 -4.1746E-01 -3.1389E-01 -3.0315E-01 -3.0313E-01 -3.0232E-01 -3.0054E-01
 -2.9827E-01 -2.9475E-01 -2.9402E-01 -2.9185E-01 -2.9167E-01 -2.2309E-01
 -1.9642E-01 -1.8527E-01 -1.4984E-01 -1.1215E-01 -1.0128E-01 -9.6607E-02
 -8.4895E-02 -1.9410E-02 -1.3220E-02  7.6624E-02  1.0509E-01  1.1775E-01
  1.3059E-01  1.4475E-01  1.6763E-01  2.1228E-01  2.2766E-01  2.3885E-01
  prteigrs : nnsclo,ikpt=  300    5 max resid (incl. the buffer)=  1.42548E-10
 Non-SCF case, kpt    6 (  0.25000  0.25000  0.25000), residuals and eigenvalues=
  5.15E-21  5.68E-21  2.43E-21  1.51E-21  3.06E-21  1.67E-21  1.60E-21  2.88E-21
  6.73E-21  2.10E-21  8.92E-21  9.77E-21  1.29E-21  9.11E-21  2.01E-21  1.68E-21
  9.47E-21  7.08E-21  6.73E-21  7.40E-21  3.61E-21  4.17E-21  5.82E-21  4.48E-21
  3.48E-21  3.32E-21  9.78E-21  3.58E-21  7.61E-21  6.48E-21  5.83E-21  3.38E-21
  5.72E-21  3.38E-21  3.86E-21  6.40E-21  4.73E-21  8.13E-21  6.51E-21  8.83E-21
  8.78E-21  2.76E-21  5.13E-21  6.25E-21  9.90E-21  8.73E-21  4.64E-21  5.28E-21
  6.75E-21  5.19E-21  1.95E-21  8.83E-21  9.86E-21  7.20E-21  8.64E-21  4.42E-21
  7.01E-21  3.04E-21  4.61E-19  4.03E-11
 -4.8486E+00 -4.8486E+00 -3.0853E+00 -3.0844E+00 -3.0843E+00 -3.0836E+00
 -3.0835E+00 -3.0833E+00 -1.7990E+00 -1.7985E+00 -1.7979E+00 -1.7970E+00
 -1.7953E+00 -1.7943E+00 -1.7926E+00 -1.7917E+00 -1.7915E+00 -1.7900E+00
 -1.7281E+00 -1.7247E+00 -1.7236E+00 -1.7224E+00 -1.7218E+00 -7.6253E-01
 -7.6061E-01 -7.6045E-01 -7.5698E-01 -7.5592E-01 -5.0821E-01 -4.9331E-01
 -4.2298E-01 -3.1364E-01 -3.0414E-01 -3.0355E-01 -3.0331E-01 -3.0070E-01
 -2.9972E-01 -2.9604E-01 -2.9487E-01 -2.9285E-01 -2.9265E-01 -2.2164E-01
 -1.9264E-01 -1.7544E-01 -1.4862E-01 -1.0164E-01 -9.3424E-02 -8.6418E-02
 -7.7345E-02 -2.3759E-02  2.2072E-02  7.9536E-02  1.0003E-01  1.1282E-01
  1.2452E-01  1.4717E-01  1.6235E-01  1.8348E-01  2.0920E-01  2.1756E-01
  prteigrs : nnsclo,ikpt=  300    6 max resid (incl. the buffer)=  4.03480E-11
 Non-SCF case, kpt    7 (  0.20000  0.20000  0.30000), residuals and eigenvalues=
  6.73E-21  4.17E-21  9.23E-21  5.81E-21  5.92E-21  8.74E-21  1.30E-21  7.72E-21
  8.35E-21  3.16E-21  7.88E-21  1.63E-21  7.81E-21  1.42E-21  1.12E-21  2.07E-21
  1.07E-21  8.25E-21  2.34E-21  1.97E-21  5.55E-21  1.11E-21  4.88E-21  4.00E-21
  1.89E-21  3.61E-21  5.05E-21  2.37E-21  3.58E-21  5.63E-21  7.61E-21  6.46E-21
  8.32E-21  4.43E-21  5.54E-21  5.01E-21  4.06E-21  7.16E-21  8.47E-21  3.10E-21
  2.29E-21  4.15E-21  2.92E-21  6.21E-21  7.65E-21  6.18E-21  5.51E-21  8.44E-21
  1.88E-21  8.96E-21  6.87E-21  1.40E-21  5.58E-21  7.96E-21  5.88E-21  8.01E-21
  6.58E-21  9.02E-21  3.89E-12  1.46E-19
 -4.8486E+00 -4.8486E+00 -3.0848E+00 -3.0838E+00 -3.0838E+00 -3.0834E+00
 -3.0830E+00 -3.0824E+00 -1.7986E+00 -1.7980E+00 -1.7972E+00 -1.7940E+00
 -1.7933E+00 -1.7924E+00 -1.7910E+00 -1.7905E+00 -1.7898E+00 -1.7875E+00
 -1.7258E+00 -1.7233E+00 -1.7224E+00 -1.7223E+00 -1.7190E+00 -7.6237E-01
 -7.6040E-01 -7.6039E-01 -7.5625E-01 -7.5585E-01 -5.1277E-01 -4.9402E-01
 -4.2836E-01 -3.1261E-01 -3.0558E-01 -3.0466E-01 -3.0402E-01 -3.0274E-01
 -2.9650E-01 -2.9409E-01 -2.9310E-01 -2.9177E-01 -2.9088E-01 -2.1711E-01
 -1.8706E-01 -1.6313E-01 -1.4403E-01 -9.0053E-02 -8.6940E-02 -7.5283E-02
 -7.2167E-02 -2.7571E-02  3.5244E-02  7.9011E-02  8.8072E-02  1.0804E-01
  1.2183E-01  1.4966E-01  1.5683E-01  1.8057E-01  1.9859E-01  2.0047E-01
  prteigrs : nnsclo,ikpt=  300    7 max resid (incl. the buffer)=  3.89203E-12
 Non-SCF case, kpt    8 (  0.15000  0.15000  0.35000), residuals and eigenvalues=
  5.34E-21  3.45E-21  7.33E-21  7.30E-22  4.33E-21  4.80E-21  9.29E-21  1.85E-21
  1.90E-21  2.32E-21  2.44E-21  3.87E-21  4.12E-21  6.34E-21  7.79E-21  2.57E-21
  2.92E-21  3.17E-21  3.17E-21  5.88E-21  3.66E-21  5.36E-21  2.73E-21  2.45E-21
  5.38E-21  8.77E-21  5.43E-21  9.07E-21  5.39E-21  5.40E-21  2.80E-21  6.78E-21
  7.82E-21  4.81E-21  4.20E-21  6.62E-21  5.94E-21  7.48E-21  9.63E-21  7.67E-21
  7.10E-21  3.79E-21  7.03E-21  7.81E-21  6.04E-21  6.85E-21  8.18E-21  5.67E-21
  1.74E-21  6.91E-21  7.99E-21  8.05E-21  1.96E-21  9.52E-21  8.81E-21  9.59E-21
  9.57E-21  5.11E-21  9.71E-21  5.05E-15
 -4.8486E+00 -4.8486E+00 -3.0854E+00 -3.0843E+00 -3.0837E+00 -3.0836E+00
 -3.0834E+00 -3.0834E+00 -1.7996E+00 -1.7989E+00 -1.7981E+00 -1.7978E+00
 -1.7959E+00 -1.7931E+00 -1.7920E+00 -1.7908E+00 -1.7902E+00 -1.7901E+00
 -1.7263E+00 -1.7262E+00 -1.7224E+00 -1.7223E+00 -1.7220E+00 -7.6286E-01
 -7.6041E-01 -7.6036E-01 -7.5647E-01 -7.5630E-01 -5.1680E-01 -4.9474E-01
 -4.3307E-01 -3.1219E-01 -3.0734E-01 -3.0683E-01 -3.0639E-01 -3.0534E-01
 -2.9629E-01 -2.9452E-01 -2.9375E-01 -2.9286E-01 -2.8960E-01 -2.1146E-01
 -1.7899E-01 -1.4924E-01 -1.3702E-01 -8.3150E-02 -7.8508E-02 -6.7852E-02
 -6.4365E-02 -3.0629E-02  1.2154E-02  6.8927E-02  7.3097E-02  1.1555E-01
  1.2737E-01  1.4244E-01  1.6076E-01  1.8785E-01  1.8888E-01  1.9934E-01
  prteigrs : nnsclo,ikpt=  300    8 max resid (incl. the buffer)=  5.05411E-15
 Non-SCF case, kpt    9 (  0.10000  0.10000  0.40000), residuals and eigenvalues=
  3.14E-21  8.63E-21  7.89E-21  3.15E-21  5.61E-21  8.10E-22  4.91E-21  1.45E-21
  3.32E-21  4.78E-21  6.44E-21  3.54E-21  6.93E-21  5.28E-21  2.55E-21  3.49E-21
  5.27E-21  6.23E-21  9.80E-21  2.56E-21  8.57E-21  3.30E-21  6.49E-21  9.41E-21
  2.69E-21  5.00E-21  7.98E-21  8.50E-21  4.42E-21  5.52E-21  5.86E-21  2.88E-21
  8.26E-21  5.41E-21  5.89E-21  6.03E-21  8.41E-21  7.67E-21  6.47E-21  3.98E-21
  8.72E-21  9.31E-21  4.58E-21  2.90E-21  7.43E-21  2.55E-21  4.08E-21  7.53E-21
  8.55E-21  2.63E-21  1.90E-21  8.80E-21  7.45E-21  7.72E-21  9.76E-21  2.70E-21
  1.49E-21  6.61E-21  1.84E-19  1.03E-18
 -4.8486E+00 -4.8486E+00 -3.0859E+00 -3.0854E+00 -3.0835E+00 -3.0834E+00
 -3.0834E+00 -3.0828E+00 -1.7991E+00 -1.7987E+00 -1.7983E+00 -1.7980E+00
 -1.7967E+00 -1.7934E+00 -1.7931E+00 -1.7911E+00 -1.7910E+00 -1.7893E+00
 -1.7269E+00 -1.7268E+00 -1.7231E+00 -1.7227E+00 -1.7212E+00 -7.6304E-01
 -7.6041E-01 -7.6021E-01 -7.5666E-01 -7.5637E-01 -5.1994E-01 -4.9531E-01
 -4.3668E-01 -3.1147E-01 -3.0928E-01 -3.0803E-01 -3.0741E-01 -3.0677E-01
 -2.9603E-01 -2.9494E-01 -2.9438E-01 -2.9078E-01 -2.8889E-01 -2.0671E-01
 -1.6815E-01 -1.3501E-01 -1.2888E-01 -8.3133E-02 -6.8307E-02 -6.1675E-02
 -5.4848E-02 -3.4911E-02 -1.5702E-02  4.7264E-02  6.3755E-02  9.7153E-02
  1.2832E-01  1.5949E-01  1.8082E-01  1.8235E-01  1.8486E-01  1.9539E-01
  prteigrs : nnsclo,ikpt=  300    9 max resid (incl. the buffer)=  1.03465E-18
 Non-SCF case, kpt   10 (  0.05000  0.05000  0.45000), residuals and eigenvalues=
  7.48E-21  9.67E-21  4.01E-21  5.02E-21  7.42E-21  6.36E-21  9.08E-22  2.75E-21
  8.10E-21  1.01E-21  1.53E-21  3.37E-21  3.12E-21  3.13E-21  2.39E-21  5.46E-21
  1.89E-21  8.08E-21  2.58E-21  7.54E-21  1.97E-21  3.93E-21  2.24E-21  7.46E-21
  6.10E-21  4.18E-21  7.88E-21  3.09E-21  3.12E-21  3.53E-21  7.31E-21  3.29E-21
  9.92E-21  6.26E-21  3.73E-21  4.27E-21  6.11E-21  6.08E-21  4.86E-21  4.74E-21
  7.68E-21  6.89E-21  8.47E-21  3.71E-21  5.65E-21  8.86E-21  2.23E-21  3.23E-21
  7.34E-21  8.72E-21  7.81E-21  2.96E-21  5.55E-21  4.48E-21  8.18E-21  8.43E-21
  9.03E-21  4.74E-21  3.99E-20  1.65E-06
 -4.8486E+00 -4.8486E+00 -3.0860E+00 -3.0856E+00 -3.0835E+00 -3.0834E+00
 -3.0833E+00 -3.0829E+00 -1.7990E+00 -1.7987E+00 -1.7978E+00 -1.7977E+00
 -1.7967E+00 -1.7937E+00 -1.7935E+00 -1.7933E+00 -1.7904E+00 -1.7896E+00
 -1.7277E+00 -1.7267E+00 -1.7238E+00 -1.7218E+00 -1.7218E+00 -7.6318E-01
 -7.6027E-01 -7.6027E-01 -7.5666E-01 -7.5648E-01 -5.2193E-01 -4.9566E-01
 -4.3895E-01 -3.1123E-01 -3.1008E-01 -3.0925E-01 -3.0826E-01 -3.0803E-01
 -2.9601E-01 -2.9516E-01 -2.9468E-01 -2.8948E-01 -2.8784E-01 -2.0390E-01
 -1.5686E-01 -1.2326E-01 -1.2165E-01 -8.4986E-02 -6.1140E-02 -5.6049E-02
 -4.8317E-02 -4.4807E-02 -3.1463E-02  2.9792E-02  5.5776E-02  8.3104E-02
  1.3111E-01  1.6374E-01  1.7222E-01  1.8363E-01  1.8410E-01  2.1741E-01
  prteigrs : nnsclo,ikpt=  300   10 max resid (incl. the buffer)=  1.64967E-06
 Non-SCF case, kpt   11 (  0.00000  0.00000  0.50000), residuals and eigenvalues=
  6.05E-21  7.58E-21  4.89E-21  3.18E-21  1.60E-21  3.40E-21  3.21E-21  1.49E-21
  8.71E-21  6.62E-21  7.35E-21  5.50E-21  3.04E-21  2.00E-21  7.92E-21  2.13E-21
  7.21E-21  3.94E-21  3.18E-21  3.13E-21  3.32E-21  3.17E-21  2.23E-21  6.30E-21
  8.84E-21  3.75E-21  8.85E-21  8.15E-21  5.86E-21  7.85E-21  4.01E-21  7.66E-21
  7.40E-21  3.04E-21  5.38E-21  5.73E-21  6.95E-21  9.99E-21  5.00E-21  4.64E-21
  6.69E-21  4.12E-21  3.18E-21  9.07E-21  9.50E-21  8.56E-21  6.16E-21  2.13E-21
  4.87E-21  6.88E-21  5.94E-21  4.07E-21  3.38E-21  7.68E-21  1.09E-21  3.72E-21
  3.45E-21  7.00E-21  8.99E-21  2.73E-06
 -4.8486E+00 -4.8486E+00 -3.0857E+00 -3.0857E+00 -3.0839E+00 -3.0832E+00
 -3.0829E+00 -3.0829E+00 -1.7999E+00 -1.7990E+00 -1.7971E+00 -1.7971E+00
 -1.7958E+00 -1.7942E+00 -1.7923E+00 -1.7922E+00 -1.7906E+00 -1.7906E+00
 -1.7269E+00 -1.7260E+00 -1.7245E+00 -1.7216E+00 -1.7216E+00 -7.6331E-01
 -7.6023E-01 -7.6023E-01 -7.5675E-01 -7.5620E-01 -5.2261E-01 -4.9579E-01
 -4.3972E-01 -3.1073E-01 -3.1065E-01 -3.0967E-01 -3.0967E-01 -3.0909E-01
 -2.9467E-01 -2.9467E-01 -2.9446E-01 -2.8922E-01 -2.8616E-01 -2.0311E-01
 -1.5149E-01 -1.1846E-01 -1.1846E-01 -8.5991E-02 -5.8581E-02 -5.8581E-02
 -4.6091E-02 -4.6091E-02 -3.6008E-02  2.2848E-02  5.2682E-02  7.8183E-02
  1.3217E-01  1.6509E-01  1.6844E-01  1.8443E-01  1.8443E-01  2.1754E-01
  prteigrs : nnsclo,ikpt=  300   11 max resid (incl. the buffer)=  2.73325E-06
 Non-SCF case, kpt   12 (  0.00000  0.00000  0.45833), residuals and eigenvalues=
  2.92E-21  9.71E-21  1.47E-21  4.94E-21  8.92E-22  1.10E-21  7.69E-21  5.47E-21
  5.65E-21  5.93E-21  6.74E-21  6.32E-21  4.80E-21  2.15E-21  6.16E-21  6.30E-21
  1.54E-21  5.46E-21  5.79E-21  3.50E-21  4.57E-21  5.91E-21  3.10E-21  8.43E-21
  4.88E-21  4.04E-21  6.16E-21  3.54E-21  6.12E-21  4.33E-21  2.95E-21  6.00E-21
  3.44E-21  6.80E-21  9.76E-21  4.15E-21  8.36E-21  6.96E-21  7.42E-21  9.12E-21
  4.63E-21  2.83E-21  4.77E-21  3.58E-21  6.25E-21  8.45E-21  5.09E-21  6.76E-21
  2.77E-21  4.72E-21  5.10E-21  3.27E-21  8.56E-21  4.28E-21  4.71E-21  4.67E-21
  6.19E-21  7.43E-21  9.20E-21  1.33E-06
 -4.8486E+00 -4.8486E+00 -3.0857E+00 -3.0857E+00 -3.0839E+00 -3.0828E+00
 -3.0828E+00 -3.0828E+00 -1.7995E+00 -1.7989E+00 -1.7969E+00 -1.7969E+00
 -1.7958E+00 -1.7938E+00 -1.7923E+00 -1.7922E+00 -1.7900E+00 -1.7900E+00
 -1.7269E+00 -1.7259E+00 -1.7241E+00 -1.7213E+00 -1.7213E+00 -7.6325E-01
 -7.6016E-01 -7.6016E-01 -7.5675E-01 -7.5620E-01 -5.2261E-01 -4.9579E-01
 -4.3972E-01 -3.1061E-01 -3.1060E-01 -3.0966E-01 -3.0966E-01 -3.0887E-01
 -2.9446E-01 -2.9428E-01 -2.9428E-01 -2.8924E-01 -2.8616E-01 -2.0305E-01
 -1.5148E-01 -1.1845E-01 -1.1845E-01 -8.5991E-02 -5.8582E-02 -5.8582E-02
 -4.6088E-02 -4.6088E-02 -3.6005E-02  2.2850E-02  5.2683E-02  7.8180E-02
  1.3214E-01  1.6520E-01  1.6844E-01  1.8444E-01  1.8444E-01  2.1711E-01
  prteigrs : nnsclo,ikpt=  300   12 max resid (incl. the buffer)=  1.32613E-06
 Non-SCF case, kpt   13 (  0.00000  0.00000  0.41667), residuals and eigenvalues=
  4.09E-21  2.80E-21  1.73E-21  2.04E-21  3.25E-21  2.55E-21  1.90E-21  1.73E-21
  5.11E-21  5.99E-21  2.88E-21  3.32E-21  2.49E-21  8.98E-21  1.73E-21  2.72E-21
  4.33E-21  2.46E-21  2.51E-21  3.83E-21  7.31E-21  9.09E-21  4.47E-21  3.91E-21
  5.72E-21  9.62E-21  6.14E-21  4.57E-21  7.33E-21  9.85E-21  4.51E-21  6.16E-21
  5.63E-21  8.54E-21  3.46E-21  4.02E-21  5.93E-21  5.87E-21  6.47E-21  5.63E-21
  3.95E-21  3.96E-21  3.40E-21  2.53E-21  3.92E-21  3.09E-21  2.93E-21  1.93E-21
  5.32E-21  1.63E-21  4.96E-21  3.67E-21  6.60E-21  8.17E-21  4.49E-21  3.42E-21
  6.35E-21  5.67E-21  4.33E-20  1.27E-07
 -4.8486E+00 -4.8486E+00 -3.0857E+00 -3.0857E+00 -3.0839E+00 -3.0828E+00
 -3.0828E+00 -3.0828E+00 -1.7995E+00 -1.7989E+00 -1.7969E+00 -1.7969E+00
 -1.7958E+00 -1.7938E+00 -1.7923E+00 -1.7922E+00 -1.7900E+00 -1.7900E+00
 -1.7269E+00 -1.7259E+00 -1.7241E+00 -1.7212E+00 -1.7212E+00 -7.6325E-01
 -7.6016E-01 -7.6016E-01 -7.5675E-01 -7.5620E-01 -5.2261E-01 -4.9579E-01
 -4.3972E-01 -3.1061E-01 -3.1059E-01 -3.0965E-01 -3.0965E-01 -3.0886E-01
 -2.9444E-01 -2.9429E-01 -2.9429E-01 -2.8924E-01 -2.8615E-01 -2.0305E-01
 -1.5148E-01 -1.1845E-01 -1.1845E-01 -8.5992E-02 -5.8581E-02 -5.8581E-02
 -4.6087E-02 -4.6087E-02 -3.6002E-02  2.2851E-02  5.2677E-02  7.8179E-02
  1.3207E-01  1.6550E-01  1.6844E-01  1.8444E-01  1.8444E-01  2.1679E-01
  prteigrs : nnsclo,ikpt=  300   13 max resid (incl. the buffer)=  1.26810E-07
 Non-SCF case, kpt   14 (  0.00000  0.00000  0.37500), residuals and eigenvalues=
  5.02E-21  1.92E-21  7.46E-21  9.74E-21  2.46E-21  1.25E-21  9.85E-21  1.41E-21
  4.53E-21  4.55E-21  5.79E-21  2.66E-21  1.93E-21  9.24E-21  1.88E-21  3.92E-21
  3.02E-21  3.21E-21  6.88E-21  4.10E-21  4.66E-21  4.52E-21  3.10E-21  2.43E-21
  4.23E-21  2.87E-21  5.41E-21  3.97E-21  6.81E-21  4.95E-21  4.68E-21  3.65E-21
  7.84E-21  6.98E-21  3.46E-21  9.43E-21  6.89E-21  6.17E-21  3.73E-21  7.70E-21
  4.01E-21  7.99E-21  4.33E-21  9.50E-21  3.51E-21  2.76E-21  3.93E-21  4.21E-21
  1.88E-21  6.82E-21  6.06E-21  3.51E-21  6.76E-21  7.38E-21  2.86E-21  9.51E-21
  5.50E-21  9.36E-21  6.91E-21  3.99E-06
 -4.8486E+00 -4.8486E+00 -3.0861E+00 -3.0861E+00 -3.0840E+00 -3.0828E+00
 -3.0828E+00 -3.0828E+00 -1.7998E+00 -1.7990E+00 -1.7970E+00 -1.7970E+00
 -1.7969E+00 -1.7939E+00 -1.7935E+00 -1.7923E+00 -1.7905E+00 -1.7905E+00
 -1.7273E+00 -1.7270E+00 -1.7243E+00 -1.7216E+00 -1.7216E+00 -7.6328E-01
 -7.6021E-01 -7.6021E-01 -7.5675E-01 -7.5642E-01 -5.2261E-01 -4.9579E-01
 -4.3972E-01 -3.1061E-01 -3.1060E-01 -3.0995E-01 -3.0995E-01 -3.0886E-01
 -2.9470E-01 -2.9428E-01 -2.9428E-01 -2.8924E-01 -2.8768E-01 -2.0305E-01
 -1.5148E-01 -1.1847E-01 -1.1847E-01 -8.5997E-02 -5.8596E-02 -5.8596E-02
 -4.6117E-02 -4.6117E-02 -3.5997E-02  2.2849E-02  5.2668E-02  7.8178E-02
  1.3197E-01  1.6600E-01  1.6843E-01  1.8440E-01  1.8440E-01  2.1582E-01
  prteigrs : nnsclo,ikpt=  300   14 max resid (incl. the buffer)=  3.98879E-06
 Non-SCF case, kpt   15 (  0.00000  0.00000  0.33333), residuals and eigenvalues=
  6.83E-21  9.00E-21  1.61E-21  3.13E-21  8.34E-21  2.24E-21  6.15E-21  4.51E-21
  7.42E-21  2.73E-21  4.47E-21  7.58E-21  2.93E-21  7.16E-21  1.05E-21  1.04E-21
  1.90E-21  2.37E-21  9.87E-21  6.81E-21  6.19E-21  6.65E-21  2.80E-21  5.94E-21
  9.99E-21  6.41E-21  4.05E-21  3.91E-21  8.84E-21  6.89E-21  6.46E-21  4.72E-21
  5.15E-21  9.66E-21  3.40E-21  6.66E-21  6.14E-21  3.74E-21  8.31E-21  8.68E-21
  5.00E-21  6.46E-21  6.79E-21  6.57E-21  4.59E-21  4.12E-21  3.25E-21  1.98E-21
  2.79E-21  1.43E-21  4.41E-21  5.76E-21  1.99E-21  8.03E-21  1.52E-21  4.43E-21
  9.99E-21  3.18E-21  6.95E-21  5.93E-08
 -4.8486E+00 -4.8486E+00 -3.0858E+00 -3.0858E+00 -3.0833E+00 -3.0831E+00
 -3.0831E+00 -3.0826E+00 -1.7992E+00 -1.7985E+00 -1.7975E+00 -1.7964E+00
 -1.7964E+00 -1.7942E+00 -1.7920E+00 -1.7918E+00 -1.7899E+00 -1.7899E+00
 -1.7280E+00 -1.7265E+00 -1.7229E+00 -1.7210E+00 -1.7210E+00 -7.6307E-01
 -7.6012E-01 -7.6012E-01 -7.5668E-01 -7.5651E-01 -5.2261E-01 -4.9578E-01
 -4.3971E-01 -3.1134E-01 -3.0996E-01 -3.0883E-01 -3.0883E-01 -3.0808E-01
 -2.9493E-01 -2.9493E-01 -2.9433E-01 -2.8940E-01 -2.8751E-01 -2.0293E-01
 -1.5147E-01 -1.1845E-01 -1.1845E-01 -8.5957E-02 -5.8548E-02 -5.8548E-02
 -4.6011E-02 -4.6011E-02 -3.5964E-02  2.2874E-02  5.2661E-02  7.8247E-02
  1.3184E-01  1.6667E-01  1.6857E-01  1.8445E-01  1.8445E-01  2.1433E-01
  prteigrs : nnsclo,ikpt=  300   15 max resid (incl. the buffer)=  5.92848E-08
 Non-SCF case, kpt   16 (  0.00000  0.00000  0.29167), residuals and eigenvalues=
  5.59E-21  6.85E-21  3.44E-21  1.86E-21  7.41E-21  1.11E-21  2.76E-21  8.17E-21
  7.92E-21  3.89E-21  3.09E-21  6.32E-21  3.83E-21  5.96E-21  4.17E-21  9.75E-21
  1.77E-21  4.52E-21  2.93E-21  2.97E-21  4.86E-21  4.08E-21  2.31E-21  8.29E-21
  2.46E-21  5.57E-21  7.79E-21  6.34E-21  7.19E-21  7.40E-21  9.92E-21  7.88E-21
  6.87E-21  4.64E-21  3.10E-21  6.08E-21  6.41E-21  4.80E-21  4.17E-21  4.96E-21
  5.13E-21  7.14E-21  2.90E-21  4.04E-21  5.83E-21  4.04E-21  2.61E-21  9.57E-21
  7.04E-21  7.40E-21  8.18E-21  9.71E-21  5.74E-21  9.50E-21  4.25E-21  6.86E-21
  7.24E-21  8.61E-21  9.85E-20  2.81E-08
 -4.8486E+00 -4.8486E+00 -3.0858E+00 -3.0858E+00 -3.0833E+00 -3.0831E+00
 -3.0831E+00 -3.0826E+00 -1.7992E+00 -1.7984E+00 -1.7975E+00 -1.7964E+00
 -1.7964E+00 -1.7942E+00 -1.7919E+00 -1.7918E+00 -1.7898E+00 -1.7898E+00
 -1.7280E+00 -1.7265E+00 -1.7228E+00 -1.7209E+00 -1.7209E+00 -7.6306E-01
 -7.6011E-01 -7.6011E-01 -7.5668E-01 -7.5651E-01 -5.2261E-01 -4.9578E-01
 -4.3971E-01 -3.1133E-01 -3.0995E-01 -3.0881E-01 -3.0881E-01 -3.0806E-01
 -2.9491E-01 -2.9491E-01 -2.9428E-01 -2.8939E-01 -2.8751E-01 -2.0292E-01
 -1.5146E-01 -1.1845E-01 -1.1845E-01 -8.5960E-02 -5.8548E-02 -5.8548E-02
 -4.6008E-02 -4.6008E-02 -3.5955E-02  2.2876E-02  5.2647E-02  7.8246E-02
  1.3169E-01  1.6747E-01  1.6858E-01  1.8445E-01  1.8445E-01  2.1273E-01
  prteigrs : nnsclo,ikpt=  300   16 max resid (incl. the buffer)=  2.81303E-08
 Non-SCF case, kpt   17 (  0.00000  0.00000  0.25000), residuals and eigenvalues=
  5.30E-21  7.12E-21  7.86E-21  6.08E-21  9.16E-22  3.44E-21  6.78E-21  9.59E-22
  2.20E-21  4.19E-21  1.77E-21  3.29E-21  5.84E-21  5.77E-21  5.86E-21  2.98E-21
  5.38E-21  6.89E-21  3.03E-21  9.03E-21  4.13E-21  8.01E-21  1.63E-21  8.25E-21
  5.20E-21  3.87E-21  6.38E-21  7.39E-21  6.53E-21  7.19E-21  7.16E-21  6.87E-21
  5.09E-21  4.00E-21  7.64E-21  9.71E-21  3.80E-21  4.37E-21  3.94E-21  6.24E-21
  6.71E-21  7.22E-21  6.43E-21  9.12E-21  6.19E-21  3.36E-21  3.15E-21  5.71E-21
  9.39E-21  5.61E-21  3.17E-21  8.47E-21  6.31E-21  3.54E-21  5.51E-21  2.11E-21
  4.24E-21  9.85E-21  8.12E-21  2.10E-09
 -4.8486E+00 -4.8486E+00 -3.0861E+00 -3.0861E+00 -3.0836E+00 -3.0834E+00
 -3.0834E+00 -3.0829E+00 -1.8004E+00 -1.7996E+00 -1.7984E+00 -1.7974E+00
 -1.7974E+00 -1.7950E+00 -1.7926E+00 -1.7921E+00 -1.7906E+00 -1.7906E+00
 -1.7288E+00 -1.7273E+00 -1.7236E+00 -1.7218E+00 -1.7218E+00 -7.6318E-01
 -7.6025E-01 -7.6025E-01 -7.5682E-01 -7.5665E-01 -5.2261E-01 -4.9578E-01
 -4.3972E-01 -3.1170E-01 -3.1034E-01 -3.0953E-01 -3.0953E-01 -3.0865E-01
 -2.9513E-01 -2.9513E-01 -2.9423E-01 -2.9008E-01 -2.8805E-01 -2.0305E-01
 -1.5148E-01 -1.1845E-01 -1.1845E-01 -8.5976E-02 -5.8576E-02 -5.8576E-02
 -4.6069E-02 -4.6069E-02 -3.5954E-02  2.2856E-02  5.2620E-02  7.8264E-02
  1.3153E-01  1.6834E-01  1.6847E-01  1.8430E-01  1.8430E-01  2.1103E-01
  prteigrs : nnsclo,ikpt=  300   17 max resid (incl. the buffer)=  2.10320E-09
 Non-SCF case, kpt   18 (  0.00000  0.00000  0.20833), residuals and eigenvalues=
  3.78E-21  1.95E-21  7.71E-21  8.45E-22  7.19E-22  4.08E-21  9.55E-22  2.21E-21
  4.71E-21  9.30E-21  2.91E-21  2.54E-21  2.41E-21  1.79E-21  5.27E-21  4.53E-21
  2.63E-21  1.21E-21  2.62E-21  8.64E-21  2.89E-21  3.87E-21  8.57E-21  7.78E-21
  4.15E-21  3.28E-21  6.40E-21  5.03E-21  3.04E-21  2.05E-21  6.45E-21  5.88E-21
  4.42E-21  9.92E-21  5.14E-21  8.75E-21  6.13E-21  3.86E-21  9.69E-21  7.90E-21
  5.79E-21  5.50E-21  5.74E-21  5.77E-21  4.57E-21  5.18E-21  3.46E-21  3.42E-21
  4.75E-21  8.24E-21  3.17E-21  5.11E-21  7.19E-21  1.59E-21  5.71E-21  2.90E-21
  7.08E-21  3.03E-21  7.17E-21  3.65E-11
 -4.8486E+00 -4.8486E+00 -3.0858E+00 -3.0858E+00 -3.0838E+00 -3.0838E+00
 -3.0832E+00 -3.0825E+00 -1.8002E+00 -1.7989E+00 -1.7984E+00 -1.7984E+00
 -1.7981E+00 -1.7944E+00 -1.7935E+00 -1.7916E+00 -1.7893E+00 -1.7893E+00
 -1.7288E+00 -1.7280E+00 -1.7222E+00 -1.7214E+00 -1.7214E+00 -7.6296E-01
 -7.6021E-01 -7.6021E-01 -7.5694E-01 -7.5662E-01 -5.2261E-01 -4.9578E-01
 -4.3971E-01 -3.1223E-01 -3.1002E-01 -3.0870E-01 -3.0870E-01 -3.0773E-01
 -2.9566E-01 -2.9566E-01 -2.9414E-01 -2.9092E-01 -2.8737E-01 -2.0290E-01
 -1.5145E-01 -1.1849E-01 -1.1849E-01 -8.5977E-02 -5.8546E-02 -5.8546E-02
 -4.5997E-02 -4.5997E-02 -3.5943E-02  2.2853E-02  5.2620E-02  7.8408E-02
  1.3139E-01  1.6842E-01  1.6929E-01  1.8432E-01  1.8432E-01  2.0934E-01
  prteigrs : nnsclo,ikpt=  300   18 max resid (incl. the buffer)=  3.64712E-11
 Non-SCF case, kpt   19 (  0.00000  0.00000  0.16667), residuals and eigenvalues=
  3.88E-21  3.05E-21  3.92E-21  9.37E-22  8.02E-22  3.16E-21  3.73E-21  7.78E-21
  2.03E-21  1.91E-21  1.26E-21  2.86E-21  2.42E-21  7.45E-21  1.37E-21  3.23E-21
  1.64E-21  3.26E-21  8.10E-21  8.30E-21  6.26E-21  2.46E-21  9.32E-21  5.71E-21
  4.62E-21  4.00E-21  6.67E-21  5.32E-21  6.56E-21  4.47E-21  8.22E-21  9.05E-21
  3.46E-21  6.20E-21  4.45E-21  3.29E-21  4.16E-21  7.06E-21  8.81E-21  4.36E-21
  4.15E-21  3.35E-21  4.97E-21  6.25E-21  2.28E-21  6.23E-21  3.83E-21  3.48E-21
  7.65E-21  2.03E-21  6.50E-21  7.46E-21  7.33E-21  8.35E-21  7.26E-21  8.39E-21
  8.10E-21  9.68E-21  1.61E-20  3.76E-13
 -4.8486E+00 -4.8486E+00 -3.0864E+00 -3.0864E+00 -3.0840E+00 -3.0840E+00
 -3.0836E+00 -3.0824E+00 -1.8005E+00 -1.8005E+00 -1.8000E+00 -1.8000E+00
 -1.7991E+00 -1.7965E+00 -1.7950E+00 -1.7939E+00 -1.7880E+00 -1.7880E+00
 -1.7299E+00 -1.7299E+00 -1.7240E+00 -1.7212E+00 -1.7212E+00 -7.6322E-01
 -7.6020E-01 -7.6020E-01 -7.5721E-01 -7.5682E-01 -5.2261E-01 -4.9583E-01
 -4.3972E-01 -3.1232E-01 -3.1157E-01 -3.0929E-01 -3.0789E-01 -3.0789E-01
 -2.9657E-01 -2.9657E-01 -2.9418E-01 -2.9098E-01 -2.8858E-01 -2.0313E-01
 -1.5150E-01 -1.1853E-01 -1.1853E-01 -8.6099E-02 -5.8512E-02 -5.8512E-02
 -4.5914E-02 -4.5914E-02 -3.6017E-02  2.2847E-02  5.2588E-02  7.8263E-02
  1.3124E-01  1.6841E-01  1.7019E-01  1.8415E-01  1.8415E-01  2.0771E-01
  prteigrs : nnsclo,ikpt=  300   19 max resid (incl. the buffer)=  3.76359E-13
 Non-SCF case, kpt   20 (  0.00000  0.00000  0.12500), residuals and eigenvalues=
  6.58E-21  3.70E-21  1.36E-21  1.10E-21  7.24E-21  9.70E-21  8.84E-21  8.36E-22
  2.44E-21  5.34E-21  9.56E-21  3.01E-21  2.13E-21  3.75E-21  8.26E-21  2.48E-21
  5.11E-21  2.49E-21  3.79E-21  9.49E-21  5.09E-21  6.58E-21  8.95E-21  7.78E-21
  4.05E-21  9.14E-21  8.54E-21  8.71E-21  4.77E-21  4.62E-21  6.20E-21  3.90E-21
  9.81E-21  8.71E-21  8.28E-21  5.42E-21  7.42E-21  8.86E-21  9.95E-21  6.90E-21
  9.98E-21  4.40E-21  6.49E-21  5.54E-21  2.13E-21  4.84E-21  9.32E-21  5.32E-21
  2.65E-21  2.58E-21  1.64E-21  9.49E-21  8.23E-21  2.35E-21  1.53E-21  5.06E-21
  6.62E-21  9.97E-21  4.97E-21  3.28E-14
 -4.8486E+00 -4.8486E+00 -3.0863E+00 -3.0863E+00 -3.0842E+00 -3.0842E+00
 -3.0836E+00 -3.0826E+00 -1.8011E+00 -1.8005E+00 -1.8000E+00 -1.8000E+00
 -1.7993E+00 -1.7968E+00 -1.7947E+00 -1.7940E+00 -1.7887E+00 -1.7887E+00
 -1.7304E+00 -1.7296E+00 -1.7242E+00 -1.7215E+00 -1.7215E+00 -7.6324E-01
 -7.6025E-01 -7.6025E-01 -7.5728E-01 -7.5678E-01 -5.2261E-01 -4.9582E-01
[...]
           getden3          1
           getwfk1          0
           getwfk2          0
           getwfk3          1
           iatsph3       1    2    4    5
             iscf1         17
             iscf2         -2
             iscf3         -3
           istwfk2       7    0    0    0    0    0    0    0    0    0
                         4    0    0    0    0    0    0    0    0    0
                         0    0    2    0    0    0    0    0    0    0
                         0    0    0    0    0    0    0    0    0    0
                         9    0    0    0    0    0    0    0    8    0
              ixc     -101130
           jdtset        1    2    3
              kpt1     5.00000000E-02  5.00000000E-02  1.25000000E-01
                       1.50000000E-01  5.00000000E-02  1.25000000E-01
                       2.50000000E-01  5.00000000E-02  1.25000000E-01
                       3.50000000E-01  5.00000000E-02  1.25000000E-01
                       4.50000000E-01  5.00000000E-02  1.25000000E-01
                       1.50000000E-01  1.50000000E-01  1.25000000E-01
                       2.50000000E-01  1.50000000E-01  1.25000000E-01
                       3.50000000E-01  1.50000000E-01  1.25000000E-01
                       4.50000000E-01  1.50000000E-01  1.25000000E-01
                       2.50000000E-01  2.50000000E-01  1.25000000E-01
                       3.50000000E-01  2.50000000E-01  1.25000000E-01
                       4.50000000E-01  2.50000000E-01  1.25000000E-01
                       3.50000000E-01  3.50000000E-01  1.25000000E-01
                       4.50000000E-01  3.50000000E-01  1.25000000E-01
                       4.50000000E-01  4.50000000E-01  1.25000000E-01
                       5.00000000E-02  5.00000000E-02  3.75000000E-01
                       1.50000000E-01  5.00000000E-02  3.75000000E-01
                       2.50000000E-01  5.00000000E-02  3.75000000E-01
                       3.50000000E-01  5.00000000E-02  3.75000000E-01
                       4.50000000E-01  5.00000000E-02  3.75000000E-01
                       1.50000000E-01  1.50000000E-01  3.75000000E-01
                       2.50000000E-01  1.50000000E-01  3.75000000E-01
                       3.50000000E-01  1.50000000E-01  3.75000000E-01
                       4.50000000E-01  1.50000000E-01  3.75000000E-01
                       2.50000000E-01  2.50000000E-01  3.75000000E-01
                       3.50000000E-01  2.50000000E-01  3.75000000E-01
                       4.50000000E-01  2.50000000E-01  3.75000000E-01
                       3.50000000E-01  3.50000000E-01  3.75000000E-01
                       4.50000000E-01  3.50000000E-01  3.75000000E-01
                       4.50000000E-01  4.50000000E-01  3.75000000E-01
              kpt2     5.00000000E-01  5.00000000E-01  0.00000000E+00
                       4.50000000E-01  4.50000000E-01  5.00000000E-02
                       4.00000000E-01  4.00000000E-01  1.00000000E-01
                       3.50000000E-01  3.50000000E-01  1.50000000E-01
                       3.00000000E-01  3.00000000E-01  2.00000000E-01
                       2.50000000E-01  2.50000000E-01  2.50000000E-01
                       2.00000000E-01  2.00000000E-01  3.00000000E-01
                       1.50000000E-01  1.50000000E-01  3.50000000E-01
                       1.00000000E-01  1.00000000E-01  4.00000000E-01
                       5.00000000E-02  5.00000000E-02  4.50000000E-01
                       0.00000000E+00  0.00000000E+00  5.00000000E-01
                       0.00000000E+00  0.00000000E+00  4.58333333E-01
                       0.00000000E+00  0.00000000E+00  4.16666667E-01
                       0.00000000E+00  0.00000000E+00  3.75000000E-01
                       0.00000000E+00  0.00000000E+00  3.33333333E-01
                       0.00000000E+00  0.00000000E+00  2.91666667E-01
                       0.00000000E+00  0.00000000E+00  2.50000000E-01
                       0.00000000E+00  0.00000000E+00  2.08333333E-01
                       0.00000000E+00  0.00000000E+00  1.66666667E-01
                       0.00000000E+00  0.00000000E+00  1.25000000E-01
                       0.00000000E+00  0.00000000E+00  8.33333333E-02
                       0.00000000E+00  0.00000000E+00  4.16666667E-02
                       0.00000000E+00  0.00000000E+00  0.00000000E+00
                       2.77777778E-02  2.77777778E-02  2.77777778E-02
                       5.55555556E-02  5.55555556E-02  5.55555556E-02
                       8.33333333E-02  8.33333333E-02  8.33333333E-02
                       1.11111111E-01  1.11111111E-01  1.11111111E-01
                       1.38888889E-01  1.38888889E-01  1.38888889E-01
                       1.66666667E-01  1.66666667E-01  1.66666667E-01
                       1.94444444E-01  1.94444444E-01  1.94444444E-01
                       2.22222222E-01  2.22222222E-01  2.22222222E-01
                       2.50000000E-01  2.50000000E-01  2.50000000E-01
                       2.77777778E-01  2.77777778E-01  2.77777778E-01
                       3.05555556E-01  3.05555556E-01  3.05555556E-01
                       3.33333333E-01  3.33333333E-01  3.33333333E-01
                       3.61111111E-01  3.61111111E-01  3.61111111E-01
                       3.88888889E-01  3.88888889E-01  3.88888889E-01
                       4.16666667E-01  4.16666667E-01  4.16666667E-01
                       4.44444444E-01  4.44444444E-01  4.44444444E-01
                       4.72222222E-01  4.72222222E-01  4.72222222E-01
                       5.00000000E-01  5.00000000E-01  5.00000000E-01
                       4.37500000E-01  5.00000000E-01  5.00000000E-01
                       3.75000000E-01  5.00000000E-01  5.00000000E-01
                       3.12500000E-01  5.00000000E-01  5.00000000E-01
                       2.50000000E-01  5.00000000E-01  5.00000000E-01
                       1.87500000E-01  5.00000000E-01  5.00000000E-01
                       1.25000000E-01  5.00000000E-01  5.00000000E-01
                       6.25000000E-02  5.00000000E-01  5.00000000E-01
                       0.00000000E+00  5.00000000E-01  5.00000000E-01
                       0.00000000E+00  5.00000000E-01  4.37500000E-01
              kpt3     5.00000000E-02  5.00000000E-02  1.25000000E-01
                       1.50000000E-01  5.00000000E-02  1.25000000E-01
                       2.50000000E-01  5.00000000E-02  1.25000000E-01
                       3.50000000E-01  5.00000000E-02  1.25000000E-01
                       4.50000000E-01  5.00000000E-02  1.25000000E-01
                       1.50000000E-01  1.50000000E-01  1.25000000E-01
                       2.50000000E-01  1.50000000E-01  1.25000000E-01
                       3.50000000E-01  1.50000000E-01  1.25000000E-01
                       4.50000000E-01  1.50000000E-01  1.25000000E-01
                       2.50000000E-01  2.50000000E-01  1.25000000E-01
                       3.50000000E-01  2.50000000E-01  1.25000000E-01
                       4.50000000E-01  2.50000000E-01  1.25000000E-01
                       3.50000000E-01  3.50000000E-01  1.25000000E-01
                       4.50000000E-01  3.50000000E-01  1.25000000E-01
                       4.50000000E-01  4.50000000E-01  1.25000000E-01
                       5.00000000E-02  5.00000000E-02  3.75000000E-01
                       1.50000000E-01  5.00000000E-02  3.75000000E-01
                       2.50000000E-01  5.00000000E-02  3.75000000E-01
                       3.50000000E-01  5.00000000E-02  3.75000000E-01
                       4.50000000E-01  5.00000000E-02  3.75000000E-01
                       1.50000000E-01  1.50000000E-01  3.75000000E-01
                       2.50000000E-01  1.50000000E-01  3.75000000E-01
                       3.50000000E-01  1.50000000E-01  3.75000000E-01
                       4.50000000E-01  1.50000000E-01  3.75000000E-01
                       2.50000000E-01  2.50000000E-01  3.75000000E-01
                       3.50000000E-01  2.50000000E-01  3.75000000E-01
                       4.50000000E-01  2.50000000E-01  3.75000000E-01
                       3.50000000E-01  3.50000000E-01  3.75000000E-01
                       4.50000000E-01  3.50000000E-01  3.75000000E-01
                       4.50000000E-01  4.50000000E-01  3.75000000E-01
                       outvar_i_n : Printing only first  50 k-points.
           kptopt1          1
           kptopt2         -5
           kptopt3          1
         kptrlatt       10    0    0      0   10    0      0    0    4
          kptrlen1     7.76243168E+01
          kptrlen2     3.00000000E+01
          kptrlen3     7.76243168E+01
P           mkmem1          5
P           mkmem2         10
P           mkmem3          5
            natom           6
           natsph3       4
            nband1         60
            nband2         60
            nband3         60
           nbdbuf1          0
           nbdbuf2          2
           nbdbuf3          2
           ndtset           3
            ngfft          36      36     128
             nkpt1         30
             nkpt2         57
             nkpt3         30
            nstep1       1000
            nstep2        300
            nstep3        300
             nsym           8
           ntypat           3
              occ      2.000000  2.000000  2.000000  2.000000  2.000000  2.000000
                       2.000000  2.000000  2.000000  2.000000  2.000000  2.000000
                       2.000000  2.000000  2.000000  2.000000  2.000000  2.000000
                       2.000000  2.000000  2.000000  2.000000  2.000000  2.000000
                       2.000000  2.000000  2.000000  2.000000  2.000000  2.000000
                       2.000000  2.000000  2.000000  2.000000  2.000000  2.000000
                       2.000000  2.000000  2.000000  2.000000  2.000000  2.000000
                       2.000000  2.000000  2.000000  2.000000  2.000000  2.000000
                       2.000000  2.000000  2.000000  0.000000  0.000000  0.000000
                       0.000000  0.000000  0.000000  0.000000  0.000000  0.000000
           prtcif           1
           prtdos1          0
           prtdos2          0
           prtdos3          3
            rprim      1.0000000000E+00  0.0000000000E+00  0.0000000000E+00
                       0.0000000000E+00  1.0000000000E+00  0.0000000000E+00
                       0.0000000000E+00  0.0000000000E+00  3.7552899407E+00
           shiftk      5.00000000E-01  5.00000000E-01  5.00000000E-01
          spgroup          99
           strten1     1.3213521826E-02  1.3213521826E-02  1.3236360894E-02
                       0.0000000000E+00  0.0000000000E+00  0.0000000000E+00
           symrel      1  0  0   0  1  0   0  0  1       1  0  0   0 -1  0   0  0  1
                      -1  0  0   0 -1  0   0  0  1      -1  0  0   0  1  0   0  0  1
                       0  1  0   1  0  0   0  0  1       0  1  0  -1  0  0   0  0  1
                       0 -1  0  -1  0  0   0  0  1       0 -1  0   1  0  0   0  0  1
            tnons      0.0000000  0.0000000  0.0000000     0.0000000  0.0000000  0.0000000
                       0.0000000  0.0000000  0.0000000     0.0000000  0.0000000  0.0000000
                       0.5000000  0.5000000  0.0000000     0.5000000  0.5000000  0.0000000
                       0.5000000  0.5000000  0.0000000     0.5000000  0.5000000  0.0000000
           tolwfr      1.00000000E-20
            typat      1  2  2  2  3  3
           vdw_xc           5
              wtk1       0.02000    0.04000    0.04000    0.04000    0.04000    0.02000
                         0.04000    0.04000    0.04000    0.02000    0.04000    0.04000
                         0.02000    0.04000    0.02000    0.02000    0.04000    0.04000
                         0.04000    0.04000    0.02000    0.04000    0.04000    0.04000
                         0.02000    0.04000    0.04000    0.02000    0.04000    0.02000
              wtk2       1.00000    1.00000    1.00000    1.00000    1.00000    1.00000
                         1.00000    1.00000    1.00000    1.00000    1.00000    1.00000
                         1.00000    1.00000    1.00000    1.00000    1.00000    1.00000
                         1.00000    1.00000    1.00000    1.00000    1.00000    1.00000
                         1.00000    1.00000    1.00000    1.00000    1.00000    1.00000
                         1.00000    1.00000    1.00000    1.00000    1.00000    1.00000
                         1.00000    1.00000    1.00000    1.00000    1.00000    1.00000
                         1.00000    1.00000    1.00000    1.00000    1.00000    1.00000
                         1.00000    1.00000
              wtk3       0.02000    0.04000    0.04000    0.04000    0.04000    0.02000
                         0.04000    0.04000    0.04000    0.02000    0.04000    0.04000
                         0.02000    0.04000    0.02000    0.02000    0.04000    0.04000
                         0.04000    0.04000    0.02000    0.04000    0.04000    0.04000
                         0.02000    0.04000    0.04000    0.02000    0.04000    0.02000
                       outvars : Printing only first  50 k-points.
           xangst      2.0538509643E+00  0.0000000000E+00  4.6664635074E+00
                       0.0000000000E+00  2.0538509643E+00  4.6982402675E+00
                       2.0538509643E+00  0.0000000000E+00  7.7691247742E+00
                       0.0000000000E+00  2.0538509643E+00  1.0759148224E+01
                       2.0538509643E+00  2.0538509643E+00  9.2641442120E+00
                       0.0000000000E+00  0.0000000000E+00  9.2641442120E+00
            xcart      3.8812158402E+00  0.0000000000E+00  8.8183380380E+00
                       0.0000000000E+00  3.8812158402E+00  8.8783874121E+00
                       3.8812158402E+00  0.0000000000E+00  1.4681518115E+01
                       0.0000000000E+00  3.8812158402E+00  2.0331843567E+01
                       3.8812158402E+00  3.8812158402E+00  1.7506695416E+01
                       0.0000000000E+00  0.0000000000E+00  1.7506695416E+01
             xred      5.0000000000E-01  0.0000000000E+00  3.0251400000E-01
                       0.0000000000E+00  5.0000000000E-01  3.0457400000E-01
                       5.0000000000E-01  0.0000000000E+00  5.0365100000E-01
                       0.0000000000E+00  5.0000000000E-01  6.9748600000E-01
                       5.0000000000E-01  5.0000000000E-01  6.0056900000E-01
                       0.0000000000E+00  0.0000000000E+00  6.0056900000E-01
            znucl       50.00000   34.00000   30.00000

================================================================================


- Timing analysis has been suppressed with timopt=0



================================================================================

 Suggested references for the acknowledgment of ABINIT usage.

 The users of ABINIT have little formal obligations with respect to the ABINIT group
 (those specified in the GNU General Public License, http://www.gnu.org/copyleft/gpl.txt).
 However, it is common practice in the scientific literature,
 to acknowledge the efforts of people that have made the research possible.
 In this spirit, please find below suggested citations of work written by ABINIT developers,
 corresponding to implementations inside of ABINIT that you have used in the present run.
 Note also that it will be of great value to readers of publications presenting these results,
 to read papers enabling them to understand the theoretical formalism and details
 of the ABINIT implementation.
 For information on why they are suggested, see also https://docs.abinit.org/theory/acknowledgments.
-
- [1] Libxc: A library of exchange and correlation functionals for density functional theory.
- M.A.L. Marques, M.J.T. Oliveira, T. Burnus, Computer Physics Communications 183, 2227 (2012).
- Comment: to be cited when LibXC is used (negative value of ixc)
- Strong suggestion to cite this paper.
- DOI and bibtex: see https://docs.abinit.org/theory/bibliography/#marques2012
-
- [2] The Abinit project: Impact, environment and recent developments.
- Computer Phys. Comm. 248, 107042 (2020).
- X.Gonze, B. Amadon, G. Antonius, F.Arnardi, L.Baguet, J.-M.Beuken,
- J.Bieder, F.Bottin, J.Bouchet, E.Bousquet, N.Brouwer, F.Bruneval,
- G.Brunin, T.Cavignac, J.-B. Charraud, Wei Chen, M.Cote, S.Cottenier,
- J.Denier, G.Geneste, Ph.Ghosez, M.Giantomassi, Y.Gillet, O.Gingras,
- D.R.Hamann, G.Hautier, Xu He, N.Helbig, N.Holzwarth, Y.Jia, F.Jollet,
- W.Lafargue-Dit-Hauret, K.Lejaeghere, M.A.L.Marques, A.Martin, C.Martins,
- H.P.C. Miranda, F.Naccarato, K. Persson, G.Petretto, V.Planes, Y.Pouillon,
- S.Prokhorenko, F.Ricci, G.-M.Rignanese, A.H.Romero, M.M.Schmitt, M.Torrent,
- M.J.van Setten, B.Van Troeye, M.J.Verstraete, G.Zerah and J.W.Zwanzig
- Comment: the fifth generic paper describing the ABINIT project.
- Note that a version of this paper, that is not formatted for Computer Phys. Comm. 
- is available at https://www.abinit.org/sites/default/files/ABINIT20.pdf .
- The licence allows the authors to put it on the Web.
- DOI and bibtex: see https://docs.abinit.org/theory/bibliography/#gonze2020
-
- [3] Optimized norm-conserving Vanderbilt pseudopotentials.
- D.R. Hamann, Phys. Rev. B 88, 085117 (2013).
- Comment: Some pseudopotential generated using the ONCVPSP code were used.
- DOI and bibtex: see https://docs.abinit.org/theory/bibliography/#hamann2013
-
- [4] ABINIT: Overview, and focus on selected capabilities
- J. Chem. Phys. 152, 124102 (2020).
- A. Romero, D.C. Allan, B. Amadon, G. Antonius, T. Applencourt, L.Baguet,
- J.Bieder, F.Bottin, J.Bouchet, E.Bousquet, F.Bruneval,
- G.Brunin, D.Caliste, M.Cote,
- J.Denier, C. Dreyer, Ph.Ghosez, M.Giantomassi, Y.Gillet, O.Gingras,
- D.R.Hamann, G.Hautier, F.Jollet, G. Jomard,
- A.Martin, 
- H.P.C. Miranda, F.Naccarato, G.Petretto, N.A. Pike, V.Planes,
- S.Prokhorenko, T. Rangel, F.Ricci, G.-M.Rignanese, M.Royo, M.Stengel, M.Torrent,
- M.J.van Setten, B.Van Troeye, M.J.Verstraete, J.Wiktor, J.W.Zwanziger, and X.Gonze.
- Comment: a global overview of ABINIT, with focus on selected capabilities .
- Note that a version of this paper, that is not formatted for J. Chem. Phys 
- is available at https://www.abinit.org/sites/default/files/ABINIT20_JPC.pdf .
- The licence allows the authors to put it on the Web.
- DOI and bibtex: see https://docs.abinit.org/theory/bibliography/#romero2020
-
- [5] Recent developments in the ABINIT software package.
- Computer Phys. Comm. 205, 106 (2016).
- X.Gonze, F.Jollet, F.Abreu Araujo, D.Adams, B.Amadon, T.Applencourt,
- C.Audouze, J.-M.Beuken, J.Bieder, A.Bokhanchuk, E.Bousquet, F.Bruneval
- D.Caliste, M.Cote, F.Dahm, F.Da Pieve, M.Delaveau, M.Di Gennaro,
- B.Dorado, C.Espejo, G.Geneste, L.Genovese, A.Gerossier, M.Giantomassi,
- Y.Gillet, D.R.Hamann, L.He, G.Jomard, J.Laflamme Janssen, S.Le Roux,
- A.Levitt, A.Lherbier, F.Liu, I.Lukacevic, A.Martin, C.Martins,
- M.J.T.Oliveira, S.Ponce, Y.Pouillon, T.Rangel, G.-M.Rignanese,
- A.H.Romero, B.Rousseau, O.Rubel, A.A.Shukri, M.Stankovski, M.Torrent,
- M.J.Van Setten, B.Van Troeye, M.J.Verstraete, D.Waroquier, J.Wiktor,
- B.Xu, A.Zhou, J.W.Zwanziger.
- Comment: the fourth generic paper describing the ABINIT project.
- Note that a version of this paper, that is not formatted for Computer Phys. Comm. 
- is available at https://www.abinit.org/sites/default/files/ABINIT16.pdf .
- The licence allows the authors to put it on the Web.
- DOI and bibtex: see https://docs.abinit.org/theory/bibliography/#gonze2016
-
- Proc.   0 individual time (sec): cpu=       3119.0  wall=       3119.2

================================================================================

 Calculation completed.
.Delivered   0 WARNINGs and   0 COMMENTs to log file.
+Overall time at end (sec) : cpu=      18714.1  wall=      18715.0
