
.Version 9.2.2 of ABINIT 
.(MPI version, prepared for a x86_64_linux_gnu9.3 computer) 

.Copyright (C) 1998-2020 ABINIT group . 
 ABINIT comes with ABSOLUTELY NO WARRANTY.
 It is free software, and you are welcome to redistribute it
 under certain conditions (GNU General Public License,
 see ~abinit/COPYING or http://www.gnu.org/copyleft/gpl.txt).

 ABINIT is a project of the Universite Catholique de Louvain,
 Corning Inc. and other collaborators, see ~abinit/doc/developers/contributors.txt .
 Please read https://docs.abinit.org/theory/acknowledgments for suggested
 acknowledgments of the ABINIT effort.
 For more information, see https://www.abinit.org .

.Starting date : Sun 17 Mar 2024.
- ( at 05h54 )
  
- The starting date is more than 3 years after the initial release
- of this version of ABINIT, namely Nov 2020.
- This version of ABINIT is not supported anymore.
- Action: please, switch to a more recent version of ABINIT.
- input  file    -> Cs2TiI6.in
- output file    -> Cs2TiI6.out
- root for input  files -> Cs2TiI6i
- root for output files -> Cs2TiI6o


 DATASET    1 : space group P4 m m (# 99); Bravais tP (primitive tetrag.)
================================================================================
 Values of the parameters that define the memory need for DATASET  1.
     intxc =       0    ionmov =       0      iscf =       7    lmnmax =       6
     lnmax =       6     mgfft =     240  mpssoang =       3    mqgrid =   11692
     natom =      16  nloc_mem =       1    nspden =       1   nspinor =       1
    nsppol =       1      nsym =       8    n1xccc =    2501    ntypat =       3
    occopt =       1   xclevel =       2
-    mband =         128        mffmem =           1         mkmem =           4
       mpw =       16862          nfft =      311040          nkpt =          15
================================================================================
P This job should need less than                     237.427 Mbytes of memory.
  Rough estimation (10% accuracy) of disk space for files :
_ WF disk file :    494.006 Mbytes ; DEN or POT disk file :      2.375 Mbytes.
================================================================================


 DATASET    2 : space group P4 m m (# 99); Bravais tP (primitive tetrag.)
================================================================================
 Values of the parameters that define the memory need for DATASET  2.
     intxc =       0    ionmov =       0      iscf =      -2    lmnmax =       6
     lnmax =       6     mgfft =     240  mpssoang =       3    mqgrid =   11692
     natom =      16  nloc_mem =       1    nspden =       1   nspinor =       1
    nsppol =       1      nsym =       8    n1xccc =    2501    ntypat =       3
    occopt =       1   xclevel =       2
-    mband =         300        mffmem =           1         mkmem =           4
       mpw =       16862          nfft =      311040          nkpt =          15
================================================================================
P This job should need less than                     375.607 Mbytes of memory.
  Rough estimation (10% accuracy) of disk space for files :
_ WF disk file :   1157.824 Mbytes ; DEN or POT disk file :      2.375 Mbytes.
================================================================================


 DATASET    3 : space group P4 m m (# 99); Bravais tP (primitive tetrag.)
================================================================================
 Values of the parameters that define the memory need for DATASET  3.
     intxc =       0    ionmov =       0      iscf =      -2    lmnmax =       6
     lnmax =       6     mgfft =     240  mpssoang =       3    mqgrid =   11692
     natom =      16  nloc_mem =       1    nspden =       1   nspinor =       1
    nsppol =       1      nsym =       8    n1xccc =    2501    ntypat =       3
    occopt =       1   xclevel =       2
-    mband =         300        mffmem =           1         mkmem =          25
       mpw =       16862          nfft =      311040          nkpt =         100
================================================================================
P This job should need less than                    2012.672 Mbytes of memory.
  Rough estimation (10% accuracy) of disk space for files :
_ WF disk file :   7718.813 Mbytes ; DEN or POT disk file :      2.375 Mbytes.
================================================================================


 DATASET    4 : space group P4 m m (# 99); Bravais tP (primitive tetrag.)
================================================================================
 Values of the parameters that define the memory need for DATASET  4 (RF).
     intxc =       0      iscf =      -3    lmnmax =       6     lnmax =       6
     mgfft =     240  mpssoang =       3    mqgrid =   11692     natom =      16
  nloc_mem =       1    nspden =       1   nspinor =       1    nsppol =       1
      nsym =       8    n1xccc =    2501    ntypat =       3    occopt =       1
   xclevel =       2
-    mband =         300        mffmem =           1         mkmem =          25
-   mkqmem =          25        mk1mem =          25           mpw =       16862
      nfft =      311040          nkpt =         100
================================================================================
P This job should need less than                    6017.777 Mbytes of memory.
  Rough estimation (10% accuracy) of disk space for files :
_ WF disk file :   -473.187 Mbytes ; DEN or POT disk file :      2.375 Mbytes.
================================================================================


 DATASET    5 : space group P4 m m (# 99); Bravais tP (primitive tetrag.)
================================================================================
 Values of the parameters that define the memory need for DATASET  5 (RF).
     intxc =       0      iscf =      -3    lmnmax =       6     lnmax =       6
     mgfft =     240  mpssoang =       3    mqgrid =   11692     natom =      16
  nloc_mem =       1    nspden =       1   nspinor =       1    nsppol =       1
      nsym =       8    n1xccc =    2501    ntypat =       3    occopt =       1
   xclevel =       2
-    mband =         300        mffmem =           1         mkmem =          25
-   mkqmem =          25        mk1mem =          25           mpw =       16862
      nfft =      311040          nkpt =         100
================================================================================
P This job should need less than                    6017.777 Mbytes of memory.
  Rough estimation (10% accuracy) of disk space for files :
_ WF disk file :   -473.187 Mbytes ; DEN or POT disk file :      2.375 Mbytes.
================================================================================


 DATASET    6 : space group P4 m m (# 99); Bravais tP (primitive tetrag.)
================================================================================
 Values of the parameters that define the memory need for DATASET  6 (RF).
     intxc =       0      iscf =      -3    lmnmax =       6     lnmax =       6
     mgfft =     240  mpssoang =       3    mqgrid =   11692     natom =      16
  nloc_mem =       1    nspden =       1   nspinor =       1    nsppol =       1
      nsym =       8    n1xccc =    2501    ntypat =       3    occopt =       1
   xclevel =       2
-    mband =         300        mffmem =           1         mkmem =          25
-   mkqmem =          25        mk1mem =          25           mpw =       16862
      nfft =      311040          nkpt =         100
================================================================================
P This job should need less than                    6017.777 Mbytes of memory.
  Rough estimation (10% accuracy) of disk space for files :
_ WF disk file :   -473.187 Mbytes ; DEN or POT disk file :      2.375 Mbytes.
================================================================================

--------------------------------------------------------------------------------
------------- Echo of variables that govern the present computation ------------
--------------------------------------------------------------------------------
-
- outvars: echo of selected default values                                      
-   iomode0 =  0 , fftalg0 =112 , wfoptalg0 =  0
-
- outvars: echo of global parameters not present in the input file              
-  max_nthreads =    0
-
 -outvars: echo values of preprocessed input variables --------
            acell      7.7624316804E+00  7.7624316804E+00  5.4752990302E+01 Bohr
              amu      1.18710000E+02  7.89600000E+01  6.53900000E+01
           diemac      1.20000000E+01
             ecut      2.25000000E+01 Hartree
-          fftalg         112
           getden1          0
           getden2          1
           getden3          1
           getden4          0
           getden5          0
           getden6          0
           getwfk1          0
           getwfk2          1
           getwfk3          2
           getwfk4          3
           getwfk5          3
           getwfk6          3
             iscf1          7
             iscf2         -2
             iscf3         -2
             iscf4         -3
             iscf5         -3
             iscf6         -3
              ixc          11
           jdtset        1    2    3    4    5    6
              kpt1     5.00000000E-02  5.00000000E-02  2.50000000E-01
                       1.50000000E-01  5.00000000E-02  2.50000000E-01
                       2.50000000E-01  5.00000000E-02  2.50000000E-01
                       3.50000000E-01  5.00000000E-02  2.50000000E-01
                       4.50000000E-01  5.00000000E-02  2.50000000E-01
                       1.50000000E-01  1.50000000E-01  2.50000000E-01
                       2.50000000E-01  1.50000000E-01  2.50000000E-01
                       3.50000000E-01  1.50000000E-01  2.50000000E-01
                       4.50000000E-01  1.50000000E-01  2.50000000E-01
                       2.50000000E-01  2.50000000E-01  2.50000000E-01
                       3.50000000E-01  2.50000000E-01  2.50000000E-01
                       4.50000000E-01  2.50000000E-01  2.50000000E-01
                       3.50000000E-01  3.50000000E-01  2.50000000E-01
                       4.50000000E-01  3.50000000E-01  2.50000000E-01
                       4.50000000E-01  4.50000000E-01  2.50000000E-01
              kpt2     5.00000000E-02  5.00000000E-02  2.50000000E-01
                       1.50000000E-01  5.00000000E-02  2.50000000E-01
                       2.50000000E-01  5.00000000E-02  2.50000000E-01
                       3.50000000E-01  5.00000000E-02  2.50000000E-01
                       4.50000000E-01  5.00000000E-02  2.50000000E-01
                       1.50000000E-01  1.50000000E-01  2.50000000E-01
                       2.50000000E-01  1.50000000E-01  2.50000000E-01
                       3.50000000E-01  1.50000000E-01  2.50000000E-01
                       4.50000000E-01  1.50000000E-01  2.50000000E-01
                       2.50000000E-01  2.50000000E-01  2.50000000E-01
                       3.50000000E-01  2.50000000E-01  2.50000000E-01
                       4.50000000E-01  2.50000000E-01  2.50000000E-01
                       3.50000000E-01  3.50000000E-01  2.50000000E-01
                       4.50000000E-01  3.50000000E-01  2.50000000E-01
                       4.50000000E-01  4.50000000E-01  2.50000000E-01
              kpt3     5.00000000E-02  5.00000000E-02  2.50000000E-01
                       1.50000000E-01  5.00000000E-02  2.50000000E-01
                       2.50000000E-01  5.00000000E-02  2.50000000E-01
                       3.50000000E-01  5.00000000E-02  2.50000000E-01
                       4.50000000E-01  5.00000000E-02  2.50000000E-01
                      -4.50000000E-01  5.00000000E-02  2.50000000E-01
                      -3.50000000E-01  5.00000000E-02  2.50000000E-01
                      -2.50000000E-01  5.00000000E-02  2.50000000E-01
                      -1.50000000E-01  5.00000000E-02  2.50000000E-01
                      -5.00000000E-02  5.00000000E-02  2.50000000E-01
                       5.00000000E-02  1.50000000E-01  2.50000000E-01
                       1.50000000E-01  1.50000000E-01  2.50000000E-01
                       2.50000000E-01  1.50000000E-01  2.50000000E-01
                       3.50000000E-01  1.50000000E-01  2.50000000E-01
                       4.50000000E-01  1.50000000E-01  2.50000000E-01
                      -4.50000000E-01  1.50000000E-01  2.50000000E-01
                      -3.50000000E-01  1.50000000E-01  2.50000000E-01
                      -2.50000000E-01  1.50000000E-01  2.50000000E-01
                      -1.50000000E-01  1.50000000E-01  2.50000000E-01
                      -5.00000000E-02  1.50000000E-01  2.50000000E-01
                       5.00000000E-02  2.50000000E-01  2.50000000E-01
                       1.50000000E-01  2.50000000E-01  2.50000000E-01
                       2.50000000E-01  2.50000000E-01  2.50000000E-01
                       3.50000000E-01  2.50000000E-01  2.50000000E-01
                       4.50000000E-01  2.50000000E-01  2.50000000E-01
                      -4.50000000E-01  2.50000000E-01  2.50000000E-01
                      -3.50000000E-01  2.50000000E-01  2.50000000E-01
                      -2.50000000E-01  2.50000000E-01  2.50000000E-01
                      -1.50000000E-01  2.50000000E-01  2.50000000E-01
                      -5.00000000E-02  2.50000000E-01  2.50000000E-01
                       5.00000000E-02  3.50000000E-01  2.50000000E-01
                       1.50000000E-01  3.50000000E-01  2.50000000E-01
                       2.50000000E-01  3.50000000E-01  2.50000000E-01
                       3.50000000E-01  3.50000000E-01  2.50000000E-01
                       4.50000000E-01  3.50000000E-01  2.50000000E-01
                      -4.50000000E-01  3.50000000E-01  2.50000000E-01
                      -3.50000000E-01  3.50000000E-01  2.50000000E-01
                      -2.50000000E-01  3.50000000E-01  2.50000000E-01
                      -1.50000000E-01  3.50000000E-01  2.50000000E-01
                      -5.00000000E-02  3.50000000E-01  2.50000000E-01
                       5.00000000E-02  4.50000000E-01  2.50000000E-01
                       1.50000000E-01  4.50000000E-01  2.50000000E-01
                       2.50000000E-01  4.50000000E-01  2.50000000E-01
                       3.50000000E-01  4.50000000E-01  2.50000000E-01
                       4.50000000E-01  4.50000000E-01  2.50000000E-01
                      -4.50000000E-01  4.50000000E-01  2.50000000E-01
                      -3.50000000E-01  4.50000000E-01  2.50000000E-01
                      -2.50000000E-01  4.50000000E-01  2.50000000E-01
                      -1.50000000E-01  4.50000000E-01  2.50000000E-01
                      -5.00000000E-02  4.50000000E-01  2.50000000E-01
              kpt4     5.00000000E-02  5.00000000E-02  2.50000000E-01
                       1.50000000E-01  5.00000000E-02  2.50000000E-01
                       2.50000000E-01  5.00000000E-02  2.50000000E-01
                       3.50000000E-01  5.00000000E-02  2.50000000E-01
                       4.50000000E-01  5.00000000E-02  2.50000000E-01
                      -4.50000000E-01  5.00000000E-02  2.50000000E-01
                      -3.50000000E-01  5.00000000E-02  2.50000000E-01
                      -2.50000000E-01  5.00000000E-02  2.50000000E-01
                      -1.50000000E-01  5.00000000E-02  2.50000000E-01
                      -5.00000000E-02  5.00000000E-02  2.50000000E-01
                       5.00000000E-02  1.50000000E-01  2.50000000E-01
                       1.50000000E-01  1.50000000E-01  2.50000000E-01
                       2.50000000E-01  1.50000000E-01  2.50000000E-01
                       3.50000000E-01  1.50000000E-01  2.50000000E-01
                       4.50000000E-01  1.50000000E-01  2.50000000E-01
                      -4.50000000E-01  1.50000000E-01  2.50000000E-01
                      -3.50000000E-01  1.50000000E-01  2.50000000E-01
                      -2.50000000E-01  1.50000000E-01  2.50000000E-01
                      -1.50000000E-01  1.50000000E-01  2.50000000E-01
                      -5.00000000E-02  1.50000000E-01  2.50000000E-01
                       5.00000000E-02  2.50000000E-01  2.50000000E-01
                       1.50000000E-01  2.50000000E-01  2.50000000E-01
                       2.50000000E-01  2.50000000E-01  2.50000000E-01
                       3.50000000E-01  2.50000000E-01  2.50000000E-01
                       4.50000000E-01  2.50000000E-01  2.50000000E-01
                      -4.50000000E-01  2.50000000E-01  2.50000000E-01
                      -3.50000000E-01  2.50000000E-01  2.50000000E-01
                      -2.50000000E-01  2.50000000E-01  2.50000000E-01
                      -1.50000000E-01  2.50000000E-01  2.50000000E-01
                      -5.00000000E-02  2.50000000E-01  2.50000000E-01
                       5.00000000E-02  3.50000000E-01  2.50000000E-01
                       1.50000000E-01  3.50000000E-01  2.50000000E-01
                       2.50000000E-01  3.50000000E-01  2.50000000E-01
                       3.50000000E-01  3.50000000E-01  2.50000000E-01
                       4.50000000E-01  3.50000000E-01  2.50000000E-01
                      -4.50000000E-01  3.50000000E-01  2.50000000E-01
                      -3.50000000E-01  3.50000000E-01  2.50000000E-01
                      -2.50000000E-01  3.50000000E-01  2.50000000E-01
                      -1.50000000E-01  3.50000000E-01  2.50000000E-01
                      -5.00000000E-02  3.50000000E-01  2.50000000E-01
                       5.00000000E-02  4.50000000E-01  2.50000000E-01
                       1.50000000E-01  4.50000000E-01  2.50000000E-01
                       2.50000000E-01  4.50000000E-01  2.50000000E-01
                       3.50000000E-01  4.50000000E-01  2.50000000E-01
                       4.50000000E-01  4.50000000E-01  2.50000000E-01
                      -4.50000000E-01  4.50000000E-01  2.50000000E-01
                      -3.50000000E-01  4.50000000E-01  2.50000000E-01
                      -2.50000000E-01  4.50000000E-01  2.50000000E-01
                      -1.50000000E-01  4.50000000E-01  2.50000000E-01
                      -5.00000000E-02  4.50000000E-01  2.50000000E-01
              kpt5     5.00000000E-02  5.00000000E-02  2.50000000E-01
                       1.50000000E-01  5.00000000E-02  2.50000000E-01
                       2.50000000E-01  5.00000000E-02  2.50000000E-01
                       3.50000000E-01  5.00000000E-02  2.50000000E-01
                       4.50000000E-01  5.00000000E-02  2.50000000E-01
                      -4.50000000E-01  5.00000000E-02  2.50000000E-01
                      -3.50000000E-01  5.00000000E-02  2.50000000E-01
                      -2.50000000E-01  5.00000000E-02  2.50000000E-01
                      -1.50000000E-01  5.00000000E-02  2.50000000E-01
                      -5.00000000E-02  5.00000000E-02  2.50000000E-01
                       5.00000000E-02  1.50000000E-01  2.50000000E-01
                       1.50000000E-01  1.50000000E-01  2.50000000E-01
                       2.50000000E-01  1.50000000E-01  2.50000000E-01
                       3.50000000E-01  1.50000000E-01  2.50000000E-01
                       4.50000000E-01  1.50000000E-01  2.50000000E-01
                      -4.50000000E-01  1.50000000E-01  2.50000000E-01
                      -3.50000000E-01  1.50000000E-01  2.50000000E-01
                      -2.50000000E-01  1.50000000E-01  2.50000000E-01
                      -1.50000000E-01  1.50000000E-01  2.50000000E-01
                      -5.00000000E-02  1.50000000E-01  2.50000000E-01
                       5.00000000E-02  2.50000000E-01  2.50000000E-01
                       1.50000000E-01  2.50000000E-01  2.50000000E-01
                       2.50000000E-01  2.50000000E-01  2.50000000E-01
                       3.50000000E-01  2.50000000E-01  2.50000000E-01
                       4.50000000E-01  2.50000000E-01  2.50000000E-01
                      -4.50000000E-01  2.50000000E-01  2.50000000E-01
                      -3.50000000E-01  2.50000000E-01  2.50000000E-01
                      -2.50000000E-01  2.50000000E-01  2.50000000E-01
                      -1.50000000E-01  2.50000000E-01  2.50000000E-01
                      -5.00000000E-02  2.50000000E-01  2.50000000E-01
                       5.00000000E-02  3.50000000E-01  2.50000000E-01
                       1.50000000E-01  3.50000000E-01  2.50000000E-01
                       2.50000000E-01  3.50000000E-01  2.50000000E-01
                       3.50000000E-01  3.50000000E-01  2.50000000E-01
                       4.50000000E-01  3.50000000E-01  2.50000000E-01
                      -4.50000000E-01  3.50000000E-01  2.50000000E-01
                      -3.50000000E-01  3.50000000E-01  2.50000000E-01
                      -2.50000000E-01  3.50000000E-01  2.50000000E-01
                      -1.50000000E-01  3.50000000E-01  2.50000000E-01
                      -5.00000000E-02  3.50000000E-01  2.50000000E-01
                       5.00000000E-02  4.50000000E-01  2.50000000E-01
                       1.50000000E-01  4.50000000E-01  2.50000000E-01
                       2.50000000E-01  4.50000000E-01  2.50000000E-01
                       3.50000000E-01  4.50000000E-01  2.50000000E-01
                       4.50000000E-01  4.50000000E-01  2.50000000E-01
                      -4.50000000E-01  4.50000000E-01  2.50000000E-01
                      -3.50000000E-01  4.50000000E-01  2.50000000E-01
                      -2.50000000E-01  4.50000000E-01  2.50000000E-01
                      -1.50000000E-01  4.50000000E-01  2.50000000E-01
                      -5.00000000E-02  4.50000000E-01  2.50000000E-01
              kpt6     5.00000000E-02  5.00000000E-02  2.50000000E-01
                       1.50000000E-01  5.00000000E-02  2.50000000E-01
                       2.50000000E-01  5.00000000E-02  2.50000000E-01
                       3.50000000E-01  5.00000000E-02  2.50000000E-01
                       4.50000000E-01  5.00000000E-02  2.50000000E-01
                      -4.50000000E-01  5.00000000E-02  2.50000000E-01
                      -3.50000000E-01  5.00000000E-02  2.50000000E-01
                      -2.50000000E-01  5.00000000E-02  2.50000000E-01
                      -1.50000000E-01  5.00000000E-02  2.50000000E-01
                      -5.00000000E-02  5.00000000E-02  2.50000000E-01
                       5.00000000E-02  1.50000000E-01  2.50000000E-01
                       1.50000000E-01  1.50000000E-01  2.50000000E-01
                       2.50000000E-01  1.50000000E-01  2.50000000E-01
                       3.50000000E-01  1.50000000E-01  2.50000000E-01
                       4.50000000E-01  1.50000000E-01  2.50000000E-01
                      -4.50000000E-01  1.50000000E-01  2.50000000E-01
                      -3.50000000E-01  1.50000000E-01  2.50000000E-01
                      -2.50000000E-01  1.50000000E-01  2.50000000E-01
                      -1.50000000E-01  1.50000000E-01  2.50000000E-01
                      -5.00000000E-02  1.50000000E-01  2.50000000E-01
                       5.00000000E-02  2.50000000E-01  2.50000000E-01
                       1.50000000E-01  2.50000000E-01  2.50000000E-01
                       2.50000000E-01  2.50000000E-01  2.50000000E-01
                       3.50000000E-01  2.50000000E-01  2.50000000E-01
                       4.50000000E-01  2.50000000E-01  2.50000000E-01
                      -4.50000000E-01  2.50000000E-01  2.50000000E-01
                      -3.50000000E-01  2.50000000E-01  2.50000000E-01
                      -2.50000000E-01  2.50000000E-01  2.50000000E-01
                      -1.50000000E-01  2.50000000E-01  2.50000000E-01
                      -5.00000000E-02  2.50000000E-01  2.50000000E-01
                       5.00000000E-02  3.50000000E-01  2.50000000E-01
                       1.50000000E-01  3.50000000E-01  2.50000000E-01
                       2.50000000E-01  3.50000000E-01  2.50000000E-01
                       3.50000000E-01  3.50000000E-01  2.50000000E-01
                       4.50000000E-01  3.50000000E-01  2.50000000E-01
                      -4.50000000E-01  3.50000000E-01  2.50000000E-01
                      -3.50000000E-01  3.50000000E-01  2.50000000E-01
                      -2.50000000E-01  3.50000000E-01  2.50000000E-01
                      -1.50000000E-01  3.50000000E-01  2.50000000E-01
                      -5.00000000E-02  3.50000000E-01  2.50000000E-01
                       5.00000000E-02  4.50000000E-01  2.50000000E-01
                       1.50000000E-01  4.50000000E-01  2.50000000E-01
                       2.50000000E-01  4.50000000E-01  2.50000000E-01
                       3.50000000E-01  4.50000000E-01  2.50000000E-01
                       4.50000000E-01  4.50000000E-01  2.50000000E-01
                      -4.50000000E-01  4.50000000E-01  2.50000000E-01
                      -3.50000000E-01  4.50000000E-01  2.50000000E-01
                      -2.50000000E-01  4.50000000E-01  2.50000000E-01
                      -1.50000000E-01  4.50000000E-01  2.50000000E-01
                      -5.00000000E-02  4.50000000E-01  2.50000000E-01
                       outvar_i_n : Printing only first  50 k-points.
           kptopt1          1
           kptopt2          1
           kptopt3          2
           kptopt4          2
           kptopt5          2
           kptopt6          2
         kptrlatt       10    0    0      0   10    0      0    0    2
          kptrlen      7.76243168E+01
P           mkmem1          4
P           mkmem2          4
P           mkmem3         25
P           mkmem4         25
P           mkmem5         25
P           mkmem6         25
P          mkqmem1          4
P          mkqmem2          4
P          mkqmem3         25
P          mkqmem4         25
P          mkqmem5         25
P          mkqmem6         25
P          mk1mem1          4
P          mk1mem2          4
P          mk1mem3         25
P          mk1mem4         25
P          mk1mem5         25
P          mk1mem6         25
            natom          16
            nband1        128
            nband2        300
            nband3        300
            nband4        300
            nband5        300
            nband6        300
           nbdbuf1          0
           nbdbuf2          2
           nbdbuf3          2
           nbdbuf4          2
           nbdbuf5          2
           nbdbuf6          2
           ndtset           6
            ngfft          36      36     240
             nkpt1         15
             nkpt2         15
             nkpt3        100
             nkpt4        100
             nkpt5        100
             nkpt6        100
            nline1          4
            nline2          4
            nline3          4
            nline4          0
            nline5          0
            nline6          0
             nqpt1          0
             nqpt2          0
             nqpt3          0
             nqpt4          1
             nqpt5          1
             nqpt6          1
            nstep1        400
            nstep2        200
            nstep3        200
            nstep4          1
            nstep5          1
            nstep6          1
             nsym           8
           ntypat           3
              occ1     2.000000  2.000000  2.000000  2.000000  2.000000  2.000000
                       2.000000  2.000000  2.000000  2.000000  2.000000  2.000000
                       2.000000  2.000000  2.000000  2.000000  2.000000  2.000000
                       2.000000  2.000000  2.000000  2.000000  2.000000  2.000000
                       2.000000  2.000000  2.000000  2.000000  2.000000  2.000000
                       2.000000  2.000000  2.000000  2.000000  2.000000  2.000000
                       2.000000  2.000000  2.000000  2.000000  2.000000  2.000000
                       2.000000  2.000000  2.000000  2.000000  2.000000  2.000000
                       2.000000  2.000000  2.000000  2.000000  2.000000  2.000000
                       2.000000  2.000000  2.000000  2.000000  2.000000  2.000000
                       2.000000  2.000000  2.000000  2.000000  2.000000  2.000000
                       2.000000  2.000000  2.000000  2.000000  2.000000  2.000000
                       2.000000  2.000000  2.000000  2.000000  2.000000  2.000000
                       2.000000  2.000000  2.000000  2.000000  2.000000  2.000000
                       2.000000  2.000000  2.000000  2.000000  2.000000  2.000000
                       2.000000  2.000000  2.000000  2.000000  2.000000  2.000000
                       2.000000  2.000000  2.000000  2.000000  2.000000  2.000000
                       2.000000  2.000000  2.000000  2.000000  2.000000  2.000000
                       2.000000  2.000000  2.000000  2.000000  2.000000  2.000000
                       2.000000  2.000000  2.000000  2.000000  2.000000  2.000000
                       2.000000  2.000000  2.000000  2.000000  2.000000  2.000000
                       0.000000  0.000000
              occ4     2.000000  2.000000  2.000000  2.000000  2.000000  2.000000
                       2.000000  2.000000  2.000000  2.000000  2.000000  2.000000
                       2.000000  2.000000  2.000000  2.000000  2.000000  2.000000
                       2.000000  2.000000  2.000000  2.000000  2.000000  2.000000
                       2.000000  2.000000  2.000000  2.000000  2.000000  2.000000
                       2.000000  2.000000  2.000000  2.000000  2.000000  2.000000
                       2.000000  2.000000  2.000000  2.000000  2.000000  2.000000
                       2.000000  2.000000  2.000000  2.000000  2.000000  2.000000
                       2.000000  2.000000  2.000000  2.000000  2.000000  2.000000
                       2.000000  2.000000  2.000000  2.000000  2.000000  2.000000
                       2.000000  2.000000  2.000000  2.000000  2.000000  2.000000
                       2.000000  2.000000  2.000000  2.000000  2.000000  2.000000
                       2.000000  2.000000  2.000000  2.000000  2.000000  2.000000
                       2.000000  2.000000  2.000000  2.000000  2.000000  2.000000
                       2.000000  2.000000  2.000000  2.000000  2.000000  2.000000
                       2.000000  2.000000  2.000000  2.000000  2.000000  2.000000
                       2.000000  2.000000  2.000000  2.000000  2.000000  2.000000
                       2.000000  2.000000  2.000000  2.000000  2.000000  2.000000
                       2.000000  2.000000  2.000000  2.000000  2.000000  2.000000
                       2.000000  2.000000  2.000000  2.000000  2.000000  2.000000
                       2.000000  2.000000  2.000000  2.000000  2.000000  2.000000
                       0.000000  0.000000  0.000000  0.000000  0.000000  0.000000
                       0.000000  0.000000  0.000000  0.000000  0.000000  0.000000
                       0.000000  0.000000  0.000000  0.000000  0.000000  0.000000
                       0.000000  0.000000  0.000000  0.000000  0.000000  0.000000
                       0.000000  0.000000  0.000000  0.000000  0.000000  0.000000
                       0.000000  0.000000  0.000000  0.000000  0.000000  0.000000
                       0.000000  0.000000  0.000000  0.000000  0.000000  0.000000
                       0.000000  0.000000  0.000000  0.000000  0.000000  0.000000
                       0.000000  0.000000  0.000000  0.000000  0.000000  0.000000
                       0.000000  0.000000  0.000000  0.000000  0.000000  0.000000
                       0.000000  0.000000  0.000000  0.000000  0.000000  0.000000
                       0.000000  0.000000  0.000000  0.000000  0.000000  0.000000
                       0.000000  0.000000  0.000000  0.000000  0.000000  0.000000
                       0.000000  0.000000  0.000000  0.000000  0.000000  0.000000
                       0.000000  0.000000  0.000000  0.000000  0.000000  0.000000
                       0.000000  0.000000  0.000000  0.000000  0.000000  0.000000
                       0.000000  0.000000  0.000000  0.000000  0.000000  0.000000
                       0.000000  0.000000  0.000000  0.000000  0.000000  0.000000
                       0.000000  0.000000  0.000000  0.000000  0.000000  0.000000
                       0.000000  0.000000  0.000000  0.000000  0.000000  0.000000
                       0.000000  0.000000  0.000000  0.000000  0.000000  0.000000
                       0.000000  0.000000  0.000000  0.000000  0.000000  0.000000
                       0.000000  0.000000  0.000000  0.000000  0.000000  0.000000
                       0.000000  0.000000  0.000000  0.000000  0.000000  0.000000
                       0.000000  0.000000  0.000000  0.000000  0.000000  0.000000
                       0.000000  0.000000  0.000000  0.000000  0.000000  0.000000
                       0.000000  0.000000  0.000000  0.000000  0.000000  0.000000
                       0.000000  0.000000  0.000000  0.000000  0.000000  0.000000
                       0.000000  0.000000  0.000000  0.000000  0.000000  0.000000
              occ5     2.000000  2.000000  2.000000  2.000000  2.000000  2.000000
                       2.000000  2.000000  2.000000  2.000000  2.000000  2.000000
                       2.000000  2.000000  2.000000  2.000000  2.000000  2.000000
                       2.000000  2.000000  2.000000  2.000000  2.000000  2.000000
                       2.000000  2.000000  2.000000  2.000000  2.000000  2.000000
                       2.000000  2.000000  2.000000  2.000000  2.000000  2.000000
                       2.000000  2.000000  2.000000  2.000000  2.000000  2.000000
                       2.000000  2.000000  2.000000  2.000000  2.000000  2.000000
                       2.000000  2.000000  2.000000  2.000000  2.000000  2.000000
                       2.000000  2.000000  2.000000  2.000000  2.000000  2.000000
                       2.000000  2.000000  2.000000  2.000000  2.000000  2.000000
                       2.000000  2.000000  2.000000  2.000000  2.000000  2.000000
                       2.000000  2.000000  2.000000  2.000000  2.000000  2.000000
                       2.000000  2.000000  2.000000  2.000000  2.000000  2.000000
                       2.000000  2.000000  2.000000  2.000000  2.000000  2.000000
                       2.000000  2.000000  2.000000  2.000000  2.000000  2.000000
                       2.000000  2.000000  2.000000  2.000000  2.000000  2.000000
                       2.000000  2.000000  2.000000  2.000000  2.000000  2.000000
                       2.000000  2.000000  2.000000  2.000000  2.000000  2.000000
                       2.000000  2.000000  2.000000  2.000000  2.000000  2.000000
                       2.000000  2.000000  2.000000  2.000000  2.000000  2.000000
                       0.000000  0.000000  0.000000  0.000000  0.000000  0.000000
                       0.000000  0.000000  0.000000  0.000000  0.000000  0.000000
                       0.000000  0.000000  0.000000  0.000000  0.000000  0.000000
                       0.000000  0.000000  0.000000  0.000000  0.000000  0.000000
                       0.000000  0.000000  0.000000  0.000000  0.000000  0.000000
                       0.000000  0.000000  0.000000  0.000000  0.000000  0.000000
                       0.000000  0.000000  0.000000  0.000000  0.000000  0.000000
                       0.000000  0.000000  0.000000  0.000000  0.000000  0.000000
                       0.000000  0.000000  0.000000  0.000000  0.000000  0.000000
                       0.000000  0.000000  0.000000  0.000000  0.000000  0.000000
                       0.000000  0.000000  0.000000  0.000000  0.000000  0.000000
                       0.000000  0.000000  0.000000  0.000000  0.000000  0.000000
                       0.000000  0.000000  0.000000  0.000000  0.000000  0.000000
                       0.000000  0.000000  0.000000  0.000000  0.000000  0.000000
                       0.000000  0.000000  0.000000  0.000000  0.000000  0.000000
                       0.000000  0.000000  0.000000  0.000000  0.000000  0.000000
                       0.000000  0.000000  0.000000  0.000000  0.000000  0.000000
                       0.000000  0.000000  0.000000  0.000000  0.000000  0.000000
                       0.000000  0.000000  0.000000  0.000000  0.000000  0.000000
                       0.000000  0.000000  0.000000  0.000000  0.000000  0.000000
                       0.000000  0.000000  0.000000  0.000000  0.000000  0.000000
                       0.000000  0.000000  0.000000  0.000000  0.000000  0.000000
                       0.000000  0.000000  0.000000  0.000000  0.000000  0.000000
                       0.000000  0.000000  0.000000  0.000000  0.000000  0.000000
                       0.000000  0.000000  0.000000  0.000000  0.000000  0.000000
                       0.000000  0.000000  0.000000  0.000000  0.000000  0.000000
                       0.000000  0.000000  0.000000  0.000000  0.000000  0.000000
                       0.000000  0.000000  0.000000  0.000000  0.000000  0.000000
                       0.000000  0.000000  0.000000  0.000000  0.000000  0.000000
              occ6     2.000000  2.000000  2.000000  2.000000  2.000000  2.000000
                       2.000000  2.000000  2.000000  2.000000  2.000000  2.000000
                       2.000000  2.000000  2.000000  2.000000  2.000000  2.000000
                       2.000000  2.000000  2.000000  2.000000  2.000000  2.000000
                       2.000000  2.000000  2.000000  2.000000  2.000000  2.000000
                       2.000000  2.000000  2.000000  2.000000  2.000000  2.000000
                       2.000000  2.000000  2.000000  2.000000  2.000000  2.000000
                       2.000000  2.000000  2.000000  2.000000  2.000000  2.000000
                       2.000000  2.000000  2.000000  2.000000  2.000000  2.000000
                       2.000000  2.000000  2.000000  2.000000  2.000000  2.000000
                       2.000000  2.000000  2.000000  2.000000  2.000000  2.000000
                       2.000000  2.000000  2.000000  2.000000  2.000000  2.000000
                       2.000000  2.000000  2.000000  2.000000  2.000000  2.000000
                       2.000000  2.000000  2.000000  2.000000  2.000000  2.000000
                       2.000000  2.000000  2.000000  2.000000  2.000000  2.000000
                       2.000000  2.000000  2.000000  2.000000  2.000000  2.000000
                       2.000000  2.000000  2.000000  2.000000  2.000000  2.000000
                       2.000000  2.000000  2.000000  2.000000  2.000000  2.000000
                       2.000000  2.000000  2.000000  2.000000  2.000000  2.000000
                       2.000000  2.000000  2.000000  2.000000  2.000000  2.000000
                       2.000000  2.000000  2.000000  2.000000  2.000000  2.000000
                       0.000000  0.000000  0.000000  0.000000  0.000000  0.000000
                       0.000000  0.000000  0.000000  0.000000  0.000000  0.000000
                       0.000000  0.000000  0.000000  0.000000  0.000000  0.000000
                       0.000000  0.000000  0.000000  0.000000  0.000000  0.000000
                       0.000000  0.000000  0.000000  0.000000  0.000000  0.000000
                       0.000000  0.000000  0.000000  0.000000  0.000000  0.000000
                       0.000000  0.000000  0.000000  0.000000  0.000000  0.000000
                       0.000000  0.000000  0.000000  0.000000  0.000000  0.000000
                       0.000000  0.000000  0.000000  0.000000  0.000000  0.000000
                       0.000000  0.000000  0.000000  0.000000  0.000000  0.000000
                       0.000000  0.000000  0.000000  0.000000  0.000000  0.000000
                       0.000000  0.000000  0.000000  0.000000  0.000000  0.000000
                       0.000000  0.000000  0.000000  0.000000  0.000000  0.000000
                       0.000000  0.000000  0.000000  0.000000  0.000000  0.000000
                       0.000000  0.000000  0.000000  0.000000  0.000000  0.000000
                       0.000000  0.000000  0.000000  0.000000  0.000000  0.000000
                       0.000000  0.000000  0.000000  0.000000  0.000000  0.000000
                       0.000000  0.000000  0.000000  0.000000  0.000000  0.000000
                       0.000000  0.000000  0.000000  0.000000  0.000000  0.000000
                       0.000000  0.000000  0.000000  0.000000  0.000000  0.000000
                       0.000000  0.000000  0.000000  0.000000  0.000000  0.000000
                       0.000000  0.000000  0.000000  0.000000  0.000000  0.000000
                       0.000000  0.000000  0.000000  0.000000  0.000000  0.000000
                       0.000000  0.000000  0.000000  0.000000  0.000000  0.000000
                       0.000000  0.000000  0.000000  0.000000  0.000000  0.000000
                       0.000000  0.000000  0.000000  0.000000  0.000000  0.000000
                       0.000000  0.000000  0.000000  0.000000  0.000000  0.000000
                       0.000000  0.000000  0.000000  0.000000  0.000000  0.000000
                       0.000000  0.000000  0.000000  0.000000  0.000000  0.000000
        optdriver1          0
        optdriver2          0
        optdriver3          0
        optdriver4          1
        optdriver5          1
        optdriver6          1
            prtwf1          1
            prtwf2          1
            prtwf3          1
            prtwf4          3
            prtwf5          3
            prtwf6          3
            rfdir1          0       0       0
            rfdir2          0       0       0
            rfdir3          0       0       0
            rfdir4          1       0       0
            rfdir5          0       1       0
            rfdir6          0       0       1
           rfelfd1          0
           rfelfd2          0
           rfelfd3          0
           rfelfd4          2
           rfelfd5          2
           rfelfd6          2
           shiftk      5.00000000E-01  5.00000000E-01  5.00000000E-01
          spgroup          99
           symrel      1  0  0   0  1  0   0  0  1       1  0  0   0 -1  0   0  0  1
                      -1  0  0   0 -1  0   0  0  1      -1  0  0   0  1  0   0  0  1
                       0  1  0   1  0  0   0  0  1       0  1  0  -1  0  0   0  0  1
                       0 -1  0  -1  0  0   0  0  1       0 -1  0   1  0  0   0  0  1
            tnons      0.0000000  0.0000000  0.0000000     0.0000000 -0.0000000  0.0000000
                      -0.0000000 -0.0000000  0.0000000    -0.0000000  0.0000000  0.0000000
                       0.5000000  0.5000000  0.0000000     0.5000000  0.5000000  0.0000000
                       0.5000000  0.5000000  0.0000000     0.5000000  0.5000000  0.0000000
           tolwfr      1.00000000E-20
            typat      1  1  1  1  1  1  2  2  2  2  2  2  2  2  3  3
           vdw_xc           5
              wtk1       0.04000    0.08000    0.08000    0.08000    0.08000    0.04000
                         0.08000    0.08000    0.08000    0.04000    0.08000    0.08000
                         0.04000    0.08000    0.04000
              wtk2       0.04000    0.08000    0.08000    0.08000    0.08000    0.04000
                         0.08000    0.08000    0.08000    0.04000    0.08000    0.08000
                         0.04000    0.08000    0.04000
              wtk3       0.01000    0.01000    0.01000    0.01000    0.01000    0.01000
                         0.01000    0.01000    0.01000    0.01000    0.01000    0.01000
                         0.01000    0.01000    0.01000    0.01000    0.01000    0.01000
                         0.01000    0.01000    0.01000    0.01000    0.01000    0.01000
                         0.01000    0.01000    0.01000    0.01000    0.01000    0.01000
                         0.01000    0.01000    0.01000    0.01000    0.01000    0.01000
                         0.01000    0.01000    0.01000    0.01000    0.01000    0.01000
                         0.01000    0.01000    0.01000    0.01000    0.01000    0.01000
                         0.01000    0.01000
              wtk4       0.01000    0.01000    0.01000    0.01000    0.01000    0.01000
                         0.01000    0.01000    0.01000    0.01000    0.01000    0.01000
                         0.01000    0.01000    0.01000    0.01000    0.01000    0.01000
                         0.01000    0.01000    0.01000    0.01000    0.01000    0.01000
                         0.01000    0.01000    0.01000    0.01000    0.01000    0.01000
                         0.01000    0.01000    0.01000    0.01000    0.01000    0.01000
                         0.01000    0.01000    0.01000    0.01000    0.01000    0.01000
                         0.01000    0.01000    0.01000    0.01000    0.01000    0.01000
                         0.01000    0.01000
              wtk5       0.01000    0.01000    0.01000    0.01000    0.01000    0.01000
                         0.01000    0.01000    0.01000    0.01000    0.01000    0.01000
                         0.01000    0.01000    0.01000    0.01000    0.01000    0.01000
                         0.01000    0.01000    0.01000    0.01000    0.01000    0.01000
                         0.01000    0.01000    0.01000    0.01000    0.01000    0.01000
                         0.01000    0.01000    0.01000    0.01000    0.01000    0.01000
                         0.01000    0.01000    0.01000    0.01000    0.01000    0.01000
                         0.01000    0.01000    0.01000    0.01000    0.01000    0.01000
                         0.01000    0.01000
              wtk6       0.01000    0.01000    0.01000    0.01000    0.01000    0.01000
                         0.01000    0.01000    0.01000    0.01000    0.01000    0.01000
                         0.01000    0.01000    0.01000    0.01000    0.01000    0.01000
                         0.01000    0.01000    0.01000    0.01000    0.01000    0.01000
                         0.01000    0.01000    0.01000    0.01000    0.01000    0.01000
                         0.01000    0.01000    0.01000    0.01000    0.01000    0.01000
                         0.01000    0.01000    0.01000    0.01000    0.01000    0.01000
                         0.01000    0.01000    0.01000    0.01000    0.01000    0.01000
                         0.01000    0.01000
                       outvars : Printing only first  50 k-points.
           xangst      2.0538509642E+00 -1.0000005802E-10  4.6664681475E+00
                      -1.0000005802E-10  2.0538509642E+00  7.4160979620E+00
                       2.0538509642E+00 -1.0000005802E-10  1.0102196638E+01
                      -1.0000005802E-10  2.0538509642E+00  1.2851826453E+01
                       2.0538509642E+00 -1.0000005802E-10  1.5537925129E+01
                      -1.0000005802E-10  2.0538509642E+00  1.8287554943E+01
                      -1.0000005802E-10  2.0538509642E+00  4.6982333557E+00
                       2.0538509642E+00 -1.0000005802E-10  7.3919861282E+00
                      -1.0000005802E-10  2.0538509642E+00  1.0144465526E+01
                       2.0538509642E+00 -1.0000005802E-10  1.2833348659E+01
                      -1.0000005802E-10  2.0538509642E+00  1.5585828057E+01
                       2.0538509642E+00 -1.0000005802E-10  1.8274711190E+01
                       2.0538509642E+00 -1.0000005802E-10  2.5980923743E+01
                      -1.0000005802E-10  2.0538509642E+00  2.8974034570E+01
                       2.0538509642E+00  2.0538509642E+00  2.7477479156E+01
                      -1.0000005802E-10 -1.0000005802E-10  2.7477479156E+01
            xcart      3.8812158400E+00 -1.8897272293E-10  8.8183468067E+00
                      -1.8897272293E-10  3.8812158400E+00  1.4014394123E+01
                       3.8812158400E+00 -1.8897272293E-10  1.9090384987E+01
                      -1.8897272293E-10  3.8812158400E+00  2.4286432303E+01
                       3.8812158400E+00 -1.8897272293E-10  2.9362423167E+01
                      -1.8897272293E-10  3.8812158400E+00  3.4558470483E+01
                      -1.8897272293E-10  3.8812158400E+00  8.8783743507E+00
                       3.8812158400E+00 -1.8897272293E-10  1.3968829360E+01
                      -1.8897272293E-10  3.8812158400E+00  1.9170261609E+01
                       3.8812158400E+00 -1.8897272293E-10  2.4251514334E+01
                      -1.8897272293E-10  3.8812158400E+00  2.9452946582E+01
                       3.8812158400E+00 -1.8897272293E-10  3.4534199307E+01
                       3.8812158400E+00 -1.8897272293E-10  4.9096830554E+01
                      -1.8897272293E-10  3.8812158400E+00  5.4752990302E+01
                       3.8812158400E+00  3.8812158400E+00  5.1924910427E+01
                      -1.8897272293E-10 -1.8897272293E-10  5.1924910427E+01
             xred      4.9999999998E-01 -2.4344526395E-11  1.6105689859E-01
                      -2.4344526395E-11  4.9999999998E-01  2.5595668922E-01
                       4.9999999998E-01 -2.4344526395E-11  3.4866378770E-01
                      -2.4344526395E-11  4.9999999998E-01  4.4356357833E-01
                       4.9999999998E-01 -2.4344526395E-11  5.3627067681E-01
                      -2.4344526395E-11  4.9999999998E-01  6.3117046744E-01
                      -2.4344526395E-11  4.9999999998E-01  1.6215323221E-01
                       4.9999999998E-01 -2.4344526395E-11  2.5512450157E-01
                      -2.4344526395E-11  4.9999999998E-01  3.5012264175E-01
                       4.9999999998E-01 -2.4344526395E-11  4.4292584204E-01
                      -2.4344526395E-11  4.9999999998E-01  5.3792398222E-01
                       4.9999999998E-01 -2.4344526395E-11  6.3072718251E-01
                       4.9999999998E-01 -2.4344526395E-11  8.9669678830E-01
                      -2.4344526395E-11  4.9999999998E-01  1.0000000000E+00
                       4.9999999998E-01  4.9999999998E-01  9.4834839414E-01
                      -2.4344526395E-11 -2.4344526395E-11  9.4834839414E-01
            znucl       50.00000   34.00000   30.00000

================================================================================

 chkinp: Checking input parameters for consistency, jdtset=   1.

 chkinp: Checking input parameters for consistency, jdtset=   2.

 chkinp: Checking input parameters for consistency, jdtset=   3.

 chkinp: Checking input parameters for consistency, jdtset=   4.

 chkinp: Checking input parameters for consistency, jdtset=   5.

 chkinp: Checking input parameters for consistency, jdtset=   6.

================================================================================
== DATASET  1 ==================================================================
-   mpi_nproc: 4, omp_nthreads: -1 (-1 if OMP is not activated)


--- !DatasetInfo
iteration_state: {dtset: 1, }
dimensions: {natom: 16, nkpt: 15, mband: 128, nsppol: 1, nspinor: 1, nspden: 1, mpw: 16862, }
cutoff_energies: {ecut:  22.5, pawecutdg:  -1.0, }
electrons: {nelect:   2.52000000E+02, charge:   0.00000000E+00, occopt:   1.00000000E+00, tsmear:   1.00000000E-02, }
meta: {optdriver: 0, ionmov: 0, optcell: 0, iscf: 7, paral_kgb: 0, }
...

 Exchange-correlation functional for the present dataset will be:
  GGA: Perdew-Burke-Ernzerhof functional - ixc=11
 Citation for XC functional:
  J.P.Perdew, K.Burke, M.Ernzerhof, PRL 77, 3865 (1996)

 Real(R)+Recip(G) space primitive vectors, cartesian coordinates (Bohr,Bohr^-1):
 R(1)=  7.7624317  0.0000000  0.0000000  G(1)=  0.1288256  0.0000000  0.0000000
 R(2)=  0.0000000  7.7624317  0.0000000  G(2)=  0.0000000  0.1288256  0.0000000
 R(3)=  0.0000000  0.0000000 54.7529903  G(3)=  0.0000000  0.0000000  0.0182638
 Unit cell volume ucvol=  3.2991604E+03 bohr^3
 Angles (23,13,12)=  9.00000000E+01  9.00000000E+01  9.00000000E+01 degrees

 getcut: wavevector=  0.0000  0.0000  0.0000  ngfft=  36  36 240
         ecut(hartree)=     22.500   => boxcut(ratio)=   2.05280

--- Pseudopotential description ------------------------------------------------
- pspini: atom type   1  psp file is ../../../Psps_for_tests/ATOMICDATA_NC/Sn.psp8
- pspatm: opening atomic psp file    ../../../Psps_for_tests/ATOMICDATA_NC/Sn.psp8
- Sn    ONCVPSP  r_core=  2.27  2.62  1.86
- 50.00000  14.00000    150810                znucl, zion, pspdat
    8   11    2    4       600   0.00000      pspcod,pspxc,lmax,lloc,mmax,r2well
    5.99000000000000    6.50000000000000    0.00000000000000   rchrg,fchrg,qchrg
     nproj     2     2     2
     extension_switch     1
  pspatm : epsatm=   32.65190642
         --- l  ekb(1:nproj) -->
             0    5.462393    0.682281
             1    4.443814    0.825686
             2   -5.382195   -1.704077
 pspatm: atomic psp has been read  and splines computed

- pspini: atom type   2  psp file is ../../../Psps_for_tests/ATOMICDATA_NC/Se.psp8
- pspatm: opening atomic psp file    ../../../Psps_for_tests/ATOMICDATA_NC/Se.psp8
- Se    ONCVPSP  r_core=  1.82  1.50  1.91
- 34.00000  16.00000    150729                znucl, zion, pspdat
    8   11    2    4       600   0.00000      pspcod,pspxc,lmax,lloc,mmax,r2well
    5.99000000000000    5.00000000000000    0.00000000000000   rchrg,fchrg,qchrg
     nproj     2     2     2
     extension_switch     1
  pspatm : epsatm=   29.53325930
         --- l  ekb(1:nproj) -->
             0    8.612261    0.939919
             1    6.984962    1.281898
             2   -9.322521   -3.856218
 pspatm: atomic psp has been read  and splines computed

- pspini: atom type   3  psp file is ../../../Psps_for_tests/ATOMICDATA_NC/Zn.psp8
- pspatm: opening atomic psp file    ../../../Psps_for_tests/ATOMICDATA_NC/Zn.psp8
- Zn    ONCVPSP  r_core=  1.36  1.66  1.85
- 30.00000  20.00000    161102                znucl, zion, pspdat
    8   11    2    4       600   0.00000      pspcod,pspxc,lmax,lloc,mmax,r2well
    5.99000000000000    2.50000000000000    0.00000000000000   rchrg,fchrg,qchrg
     nproj     2     2     2
     extension_switch     1
  pspatm : epsatm=   26.67245340
         --- l  ekb(1:nproj) -->
             0    2.404235   -1.533451
             1   -4.677427   -1.530630
             2   -7.000316   -2.622858
 pspatm: atomic psp has been read  and splines computed

   1.22351650E+05                                ecore*ucvol(ha*bohr**3)
--------------------------------------------------------------------------------

_setup2: Arith. and geom. avg. npw (full set) are   16818.680   16818.669

================================================================================

--- !BeginCycle
iteration_state: {dtset: 1, }
solver: {iscf: 7, nstep: 400, nline: 4, wfoptalg: 0, }
tolerances: {tolwfr: 1.00E-20, }
...

     iter   Etot(hartree)      deltaE(h)  residm     vres2
 ETOT  1  -1647.4160896036    -1.647E+03 7.949E-01 1.949E+07
 ETOT  2   5714.4677721304     7.362E+03 3.689E-01 1.279E+09
 ETOT  3  -766.25298356683    -6.481E+03 2.159E+00 1.651E+08
 ETOT  4  -1824.0301382393    -1.058E+03 5.082E-01 1.557E+06
 ETOT  5  -1846.9539030765    -2.292E+01 5.473E-02 1.144E+05
 ETOT  6  -1848.1075181763    -1.154E+00 2.605E-02 8.366E+04
 ETOT  7  -1847.7492620210     3.583E-01 2.213E-02 3.171E+05
 ETOT  8  -1848.4969772061    -7.477E-01 1.337E-02 2.536E+05
 ETOT  9  -1848.5384353922    -4.146E-02 6.105E-03 2.945E+05
 ETOT 10  -1846.7635310652     1.775E+00 1.259E-02 6.913E+05
 ETOT 11  -1849.2900944325    -2.527E+00 1.017E-03 2.570E+05
 ETOT 12  -1850.8156642474    -1.526E+00 4.179E-03 9.137E+02
 ETOT 13  -1850.8232466687    -7.582E-03 1.094E-02 2.365E+02
 ETOT 14  -1850.8248603911    -1.614E-03 1.206E-03 1.493E+02
 ETOT 15  -1850.8253925574    -5.322E-04 3.916E-03 9.906E+01
 ETOT 16  -1850.8254442290    -5.167E-05 7.229E-04 9.168E+01
 ETOT 17  -1850.8256027019    -1.585E-04 3.890E-03 6.185E+01
 ETOT 18  -1850.8256223052    -1.960E-05 4.411E-04 6.281E+01
 ETOT 19  -1850.8256759798    -5.367E-05 1.926E-03 5.127E+01
 ETOT 20  -1850.8258061587    -1.302E-04 3.162E-03 1.603E+01
 ETOT 21  -1850.8258500406    -4.388E-05 3.436E-03 5.580E+00
 ETOT 22  -1850.8258603198    -1.028E-05 1.858E-03 2.710E+00
 ETOT 23  -1850.8258718542    -1.153E-05 1.760E-03 9.240E-02
 ETOT 24  -1850.8258718566    -2.404E-09 1.633E-03 8.066E-02
 ETOT 25  -1850.8258722980    -4.414E-07 1.018E-03 1.148E-03
 ETOT 26  -1850.8258723126    -1.460E-08 6.666E-04 1.381E-03
 ETOT 27  -1850.8258723189    -6.297E-09 5.080E-04 4.043E-04
 ETOT 28  -1850.8258723211    -2.171E-09 4.607E-04 3.139E-05
 ETOT 29  -1850.8258723214    -2.940E-10 5.218E-04 1.283E-06
 ETOT 30  -1850.8258723217    -3.095E-10 3.740E-04 3.547E-07
 ETOT 31  -1850.8258723214     2.356E-10 3.251E-04 3.216E-07
 ETOT 32  -1850.8258723214     9.004E-11 2.034E-04 5.691E-08
 ETOT 33  -1850.8258723215    -1.671E-10 2.060E-04 2.929E-08
 ETOT 34  -1850.8258723214     8.072E-11 8.564E-05 7.109E-09
 ETOT 35  -1850.8258723217    -2.938E-10 1.816E-04 8.444E-10
 ETOT 36  -1850.8258723211     5.946E-10 8.769E-05 4.268E-10
 ETOT 37  -1850.8258723218    -6.696E-10 2.184E-04 1.118E-10
 ETOT 38  -1850.8258723215     2.838E-10 9.677E-05 1.429E-11
 ETOT 39  -1850.8258723217    -1.826E-10 2.176E-04 1.103E-12
 ETOT 40  -1850.8258723216     9.345E-11 8.874E-05 4.355E-13
 ETOT 41  -1850.8258723216     1.319E-11 1.784E-04 7.240E-14
 ETOT 42  -1850.8258723216    -4.093E-11 6.839E-05 2.750E-14
 ETOT 43  -1850.8258723216     6.708E-11 1.237E-04 5.225E-15
 ETOT 44  -1850.8258723216    -5.912E-12 4.571E-05 4.454E-15
 ETOT 45  -1850.8258723216     2.797E-11 7.588E-05 1.571E-15
 ETOT 46  -1850.8258723215     1.933E-11 2.752E-05 5.221E-16
 ETOT 47  -1850.8258723215     6.594E-12 4.302E-05 9.981E-17
 ETOT 48  -1850.8258723216    -2.547E-11 1.545E-05 3.262E-17
 ETOT 49  -1850.8258723216    -2.797E-11 2.329E-05 1.869E-17
 ETOT 50  -1850.8258723216     1.342E-11 8.317E-06 1.650E-17
 ETOT 51  -1850.8258723216     3.183E-12 1.229E-05 1.365E-17
 ETOT 52  -1850.8258723216     2.728E-12 4.374E-06 9.549E-18
 ETOT 53  -1850.8258723216    -8.640E-12 6.408E-06 7.934E-18
 ETOT 54  -1850.8258723216    -6.821E-13 2.273E-06 7.277E-18
 ETOT 55  -1850.8258723216    -2.274E-13 3.321E-06 6.148E-18
 ETOT 56  -1850.8258723216    -3.183E-12 1.176E-06 5.108E-18
 ETOT 57  -1850.8258723216    -3.411E-12 1.718E-06 4.487E-18
 ETOT 58  -1850.8258723216    -9.095E-13 6.070E-07 4.052E-18
 ETOT 59  -1850.8258723216    -2.046E-12 8.894E-07 4.067E-18
 ETOT 60  -1850.8258723216     2.728E-12 3.137E-07 3.811E-18
 ETOT 61  -1850.8258723216    -1.819E-12 4.615E-07 3.478E-18
 ETOT 62  -1850.8258723216    -3.183E-12 1.625E-07 2.991E-18
 ETOT 63  -1850.8258723216     1.364E-12 2.403E-07 2.715E-18
 ETOT 64  -1850.8258723216     1.364E-12 8.447E-08 2.528E-18
 ETOT 65  -1850.8258723216    -4.775E-12 1.256E-07 2.453E-18
 ETOT 66  -1850.8258723216     2.274E-13 4.409E-08 2.330E-18
 ETOT 67  -1850.8258723216     4.547E-13 6.600E-08 2.150E-18
 ETOT 68  -1850.8258723216    -4.547E-13 2.314E-08 2.097E-18
 ETOT 69  -1850.8258723216    -4.547E-12 3.487E-08 1.838E-18
 ETOT 70  -1850.8258723216     6.821E-13 1.221E-08 1.649E-18
 ETOT 71  -1850.8258723216     4.547E-13 1.853E-08 1.695E-18
 ETOT 72  -1850.8258723216     9.095E-13 6.484E-09 1.535E-18
 ETOT 73  -1850.8258723216     2.274E-13 9.919E-09 1.393E-18
 ETOT 74  -1850.8258723216    -2.046E-12 3.468E-09 1.277E-18
 ETOT 75  -1850.8258723216     2.274E-13 5.347E-09 1.233E-18
 ETOT 76  -1850.8258723216     0.000E+00 1.869E-09 1.191E-18
 ETOT 77  -1850.8258723216     2.274E-13 2.905E-09 1.131E-18
 ETOT 78  -1850.8258723216     2.956E-12 1.016E-09 1.114E-18
 ETOT 79  -1850.8258723216     5.912E-12 1.591E-09 9.897E-19
 ETOT 80  -1850.8258723216    -1.819E-12 5.565E-10 1.136E-18
 ETOT 81  -1850.8258723216     1.364E-12 8.792E-10 9.834E-19
 ETOT 82  -1850.8258723216    -2.274E-13 3.076E-10 9.466E-19
 ETOT 83  -1850.8258723216     2.046E-12 4.898E-10 7.731E-19
 ETOT 84  -1850.8258723216    -3.865E-12 1.716E-10 9.308E-19
 ETOT 85  -1850.8258723216     2.046E-12 2.753E-10 7.760E-19
 ETOT 86  -1850.8258723216    -2.274E-13 9.651E-11 7.824E-19
 ETOT 87  -1850.8258723216     1.137E-12 1.560E-10 8.546E-19
 ETOT 88  -1850.8258723216     4.093E-12 5.476E-11 6.666E-19
 ETOT 89  -1850.8258723216    -3.865E-12 8.911E-11 7.952E-19
 ETOT 90  -1850.8258723216     6.821E-13 3.132E-11 7.361E-19
 ETOT 91  -1850.8258723216    -4.547E-13 5.129E-11 7.070E-19
 ETOT 92  -1850.8258723216     6.821E-13 1.806E-11 6.359E-19
 ETOT 93  -1850.8258723216    -1.364E-12 2.974E-11 5.435E-19
 ETOT 94  -1850.8258723216     1.592E-12 1.048E-11 5.270E-19
 ETOT 95  -1850.8258723216    -9.095E-13 1.735E-11 5.138E-19
 ETOT 96  -1850.8258723216     2.046E-12 6.124E-12 5.099E-19
 ETOT 97  -1850.8258723216    -1.592E-12 1.018E-11 6.481E-19
 ETOT 98  -1850.8258723216    -1.819E-12 3.599E-12 4.956E-19
 ETOT 99  -1850.8258723216     6.821E-13 6.009E-12 6.896E-19
 ETOT  100  -1850.8258723216    -9.095E-13 2.126E-12 6.003E-19
 ETOT  101  -1850.8258723216     2.046E-12 3.562E-12 5.461E-19
 ETOT  102  -1850.8258723216     4.547E-13 1.261E-12 5.405E-19
 ETOT  103  -1850.8258723216    -1.819E-12 2.120E-12 5.408E-19
 ETOT  104  -1850.8258723216     1.364E-12 7.513E-13 4.583E-19
 ETOT  105  -1850.8258723216    -1.819E-12 1.266E-12 5.330E-19
 ETOT  106  -1850.8258723216     0.000E+00 4.490E-13 5.069E-19
 ETOT  107  -1850.8258723216     2.956E-12 7.580E-13 4.819E-19
 ETOT  108  -1850.8258723216    -2.274E-12 2.691E-13 6.083E-19
 ETOT  109  -1850.8258723216    -2.956E-12 4.551E-13 4.367E-19
 ETOT  110  -1850.8258723216     4.093E-12 1.617E-13 4.381E-19
 ETOT  111  -1850.8258723216    -1.819E-12 2.738E-13 4.440E-19
 ETOT  112  -1850.8258723216    -2.274E-13 9.736E-14 5.752E-19
 ETOT  113  -1850.8258723216    -3.183E-12 1.651E-13 4.654E-19
 ETOT  114  -1850.8258723216     2.046E-12 5.872E-14 4.686E-19
 ETOT  115  -1850.8258723216    -2.274E-13 9.963E-14 5.113E-19
 ETOT  116  -1850.8258723216     1.137E-12 3.546E-14 4.553E-19
 ETOT  117  -1850.8258723216    -1.137E-12 6.021E-14 3.965E-19
 ETOT  118  -1850.8258723216     6.821E-13 2.144E-14 4.975E-19
 ETOT  119  -1850.8258723216    -9.095E-13 3.643E-14 4.910E-19
 ETOT  120  -1850.8258723216     9.095E-13 1.298E-14 5.421E-19
 ETOT  121  -1850.8258723216    -1.137E-12 2.206E-14 4.756E-19
 ETOT  122  -1850.8258723216     2.274E-13 7.861E-15 5.317E-19
 ETOT  123  -1850.8258723216    -2.274E-12 1.336E-14 4.733E-19
 ETOT  124  -1850.8258723216     3.411E-12 4.765E-15 3.913E-19
 ETOT  125  -1850.8258723216    -1.592E-12 8.101E-15 5.214E-19
 ETOT  126  -1850.8258723216     1.364E-12 2.890E-15 4.744E-19
 ETOT  127  -1850.8258723216    -1.364E-12 4.914E-15 3.764E-19
 ETOT  128  -1850.8258723216    -4.547E-13 1.754E-15 5.247E-19
 ETOT  129  -1850.8258723216     2.274E-12 2.981E-15 3.707E-19
 ETOT  130  -1850.8258723216    -4.547E-13 1.064E-15 5.051E-19
 ETOT  131  -1850.8258723216     9.095E-13 1.810E-15 4.656E-19
 ETOT  132  -1850.8258723216    -3.638E-12 6.463E-16 3.568E-19
 ETOT  133  -1850.8258723216     2.728E-12 1.099E-15 3.771E-19
 ETOT  134  -1850.8258723216    -4.547E-13 3.925E-16 5.138E-19
 ETOT  135  -1850.8258723216    -9.095E-13 6.671E-16 5.604E-19
 ETOT  136  -1850.8258723216     1.819E-12 2.384E-16 4.462E-19
 ETOT  137  -1850.8258723216    -9.095E-13 4.051E-16 4.097E-19
 ETOT  138  -1850.8258723216     9.095E-13 1.448E-16 4.808E-19
 ETOT  139  -1850.8258723216     6.821E-13 2.461E-16 4.608E-19
 ETOT  140  -1850.8258723216    -3.411E-12 8.801E-17 4.304E-19
 ETOT  141  -1850.8258723216     1.364E-12 1.495E-16 5.176E-19
 ETOT  142  -1850.8258723216     2.274E-13 5.348E-17 3.811E-19
 ETOT  143  -1850.8258723216     2.046E-12 9.083E-17 3.434E-19
 ETOT  144  -1850.8258723216    -1.137E-12 3.250E-17 3.846E-19
 ETOT  145  -1850.8258723216    -4.547E-13 5.519E-17 4.586E-19
 ETOT  146  -1850.8258723216    -1.137E-12 1.976E-17 4.039E-19
 ETOT  147  -1850.8258723216     2.728E-12 3.353E-17 5.911E-19
 ETOT  148  -1850.8258723216    -9.095E-13 1.201E-17 3.851E-19
 ETOT  149  -1850.8258723216    -2.274E-12 2.038E-17 4.729E-19
 ETOT  150  -1850.8258723216     1.364E-12 7.299E-18 5.154E-19
 ETOT  151  -1850.8258723216    -6.821E-13 1.238E-17 3.710E-19
 ETOT  152  -1850.8258723216     2.501E-12 4.437E-18 3.593E-19
 ETOT  153  -1850.8258723216    -1.364E-12 7.525E-18 4.071E-19
 ETOT  154  -1850.8258723216    -4.547E-13 2.697E-18 3.347E-19
 ETOT  155  -1850.8258723216    -1.364E-12 4.573E-18 5.498E-19
 ETOT  156  -1850.8258723216    -4.547E-13 1.640E-18 4.209E-19
 ETOT  157  -1850.8258723216     1.364E-12 2.894E-18 4.221E-19
 ETOT  158  -1850.8258723216     1.364E-12 9.968E-19 4.271E-19
 ETOT  159  -1850.8258723216     1.364E-12 1.900E-18 3.723E-19
 ETOT  160  -1850.8258723216    -1.364E-12 6.060E-19 4.642E-19
 ETOT  161  -1850.8258723216    -1.137E-12 1.248E-18 4.292E-19
 ETOT  162  -1850.8258723216    -1.592E-12 3.684E-19 3.783E-19
 ETOT  163  -1850.8258723216     3.183E-12 8.197E-19 4.584E-19
 ETOT  164  -1850.8258723216    -1.364E-12 2.240E-19 5.092E-19
 ETOT  165  -1850.8258723216    -1.364E-12 5.384E-19 3.341E-19
 ETOT  166  -1850.8258723216     2.274E-13 1.362E-19 4.536E-19
 ETOT  167  -1850.8258723216     2.274E-13 3.536E-19 4.264E-19
 ETOT  168  -1850.8258723216     1.364E-12 8.775E-20 4.063E-19
 ETOT  169  -1850.8258723216    -1.592E-12 2.323E-19 5.120E-19
 ETOT  170  -1850.8258723216    -9.095E-13 5.764E-20 4.519E-19
 ETOT  171  -1850.8258723216     1.364E-12 1.526E-19 3.500E-19
 ETOT  172  -1850.8258723216    -2.274E-12 3.786E-20 4.328E-19
 ETOT  173  -1850.8258723216     4.547E-13 1.003E-19 4.945E-19
 ETOT  174  -1850.8258723216    -6.821E-13 2.487E-20 3.544E-19
 ETOT  175  -1850.8258723216     9.095E-13 6.589E-20 5.111E-19
 ETOT  176  -1850.8258723216     0.000E+00 1.634E-20 5.541E-19
 ETOT  177  -1850.8258723216     9.095E-13 4.330E-20 4.506E-19
 ETOT  178  -1850.8258723216    -4.547E-13 1.073E-20 4.445E-19
 ETOT  179  -1850.8258723216     4.547E-13 9.977E-21 3.974E-19

 At SCF step  179   max residual=  9.98E-21 < tolwfr=  1.00E-20 =>converged.

 Cartesian components of stress tensor (hartree/bohr^3)
  sigma(1 1)=  1.56926934E-02  sigma(3 2)=  0.00000000E+00
  sigma(2 2)=  1.56926934E-02  sigma(3 1)=  0.00000000E+00
  sigma(3 3)=  1.54993916E-02  sigma(2 1)=  0.00000000E+00


--- !ResultsGS
iteration_state: {dtset: 1, }
comment   : Summary of ground state results
lattice_vectors:
- [  7.7624317,   0.0000000,   0.0000000, ]
- [  0.0000000,   7.7624317,   0.0000000, ]
- [  0.0000000,   0.0000000,  54.7529903, ]
lattice_lengths: [   7.76243,    7.76243,   54.75299, ]
lattice_angles: [ 90.000,  90.000,  90.000, ] # degrees, (23, 13, 12)
lattice_volume:   3.2991604E+03
convergence: {deltae:  4.547E-13, res2:  3.974E-19, residm:  9.977E-21, diffor: null, }
etotal    :  -1.85082587E+03
entropy   :   0.00000000E+00
fermie    :   1.40729110E-01
cartesian_stress_tensor: # hartree/bohr^3
- [  1.56926934E-02,   0.00000000E+00,   0.00000000E+00, ]
- [  0.00000000E+00,   1.56926934E-02,   0.00000000E+00, ]
- [  0.00000000E+00,   0.00000000E+00,   1.54993916E-02, ]
pressure_GPa:  -4.5980E+02
xred      :
- [  5.0000E-01,  -2.4345E-11,   1.6106E-01, Sn]
- [ -2.4345E-11,   5.0000E-01,   2.5596E-01, Sn]
- [  5.0000E-01,  -2.4345E-11,   3.4866E-01, Sn]
- [ -2.4345E-11,   5.0000E-01,   4.4356E-01, Sn]
- [  5.0000E-01,  -2.4345E-11,   5.3627E-01, Sn]
- [ -2.4345E-11,   5.0000E-01,   6.3117E-01, Sn]
- [ -2.4345E-11,   5.0000E-01,   1.6215E-01, Se]
- [  5.0000E-01,  -2.4345E-11,   2.5512E-01, Se]
- [ -2.4345E-11,   5.0000E-01,   3.5012E-01, Se]
- [  5.0000E-01,  -2.4345E-11,   4.4293E-01, Se]
- [ -2.4345E-11,   5.0000E-01,   5.3792E-01, Se]
- [  5.0000E-01,  -2.4345E-11,   6.3073E-01, Se]
- [  5.0000E-01,  -2.4345E-11,   8.9670E-01, Se]
- [ -2.4345E-11,   5.0000E-01,   1.0000E+00, Se]
- [  5.0000E-01,   5.0000E-01,   9.4835E-01, Zn]
- [ -2.4345E-11,  -2.4345E-11,   9.4835E-01, Zn]
cartesian_forces: # hartree/bohr
- [ -0.00000000E+00,  -0.00000000E+00,  -1.46187457E-02, ]
- [ -0.00000000E+00,  -0.00000000E+00,  -1.37239121E-02, ]
- [ -0.00000000E+00,  -0.00000000E+00,   4.63991556E-03, ]
- [ -0.00000000E+00,  -0.00000000E+00,  -3.30433246E-03, ]
- [ -0.00000000E+00,  -0.00000000E+00,   1.49954068E-02, ]
- [ -0.00000000E+00,  -0.00000000E+00,   1.30621231E-02, ]
- [ -0.00000000E+00,  -0.00000000E+00,  -1.79171035E-02, ]
- [ -0.00000000E+00,  -0.00000000E+00,  -1.09106667E-02, ]
- [ -0.00000000E+00,  -0.00000000E+00,  -1.07400947E-03, ]
- [ -0.00000000E+00,  -0.00000000E+00,  -5.13166598E-03, ]
- [ -0.00000000E+00,  -0.00000000E+00,   4.80668334E-03, ]
- [ -0.00000000E+00,  -0.00000000E+00,   1.27067622E-02, ]
- [ -0.00000000E+00,  -0.00000000E+00,   9.48990479E-03, ]
- [ -0.00000000E+00,  -0.00000000E+00,  -9.97804156E-03, ]
- [ -0.00000000E+00,  -0.00000000E+00,   8.47884080E-03, ]
- [ -0.00000000E+00,  -0.00000000E+00,   8.47884080E-03, ]
force_length_stats: {min:   1.07400947E-03, max:   1.79171035E-02, mean:   9.58230967E-03, }
...

 Integrated electronic density in atomic spheres:
 ------------------------------------------------
 Atom  Sphere_radius  Integrated_density
    1        2.00000         10.54940669
    2        2.00000         10.56073364
    3        2.00000         10.59036287
    4        2.00000         10.55466522
    5        2.00000         10.58670430
    6        2.00000         10.53292505
    7        2.00000         13.29197227
    8        2.00000         13.32909522
    9        2.00000         13.31561684
   10        2.00000         13.33057877
   11        2.00000         13.32336680
   12        2.00000         13.28916893
   13        2.00000         13.27706777
   14        2.00000         13.27362147
   15        2.00000         18.10233272
   16        2.00000         18.10233272
================================================================================

 ----iterations are completed or convergence reached----

 Mean square residual over all n,k,spin=   29.304E-22; max=  99.769E-22
 reduced coordinates (array xred) for   16 atoms
       0.499999999976     -0.000000000024      0.161056898591
      -0.000000000024      0.499999999976      0.255956689223
       0.499999999976     -0.000000000024      0.348663787700
      -0.000000000024      0.499999999976      0.443563578333
       0.499999999976     -0.000000000024      0.536270676809
      -0.000000000024      0.499999999976      0.631170467442
      -0.000000000024      0.499999999976      0.162153232209
       0.499999999976     -0.000000000024      0.255124501570
      -0.000000000024      0.499999999976      0.350122641754
       0.499999999976     -0.000000000024      0.442925842039
      -0.000000000024      0.499999999976      0.537923982223
       0.499999999976     -0.000000000024      0.630727182508
       0.499999999976     -0.000000000024      0.896696788299
      -0.000000000024      0.499999999976      1.000000000000
       0.499999999976      0.499999999976      0.948348394137
      -0.000000000024     -0.000000000024      0.948348394137
 rms dE/dt=  3.3925E-01; max dE/dt=  9.0960E-01; dE/dt below (all hartree)
    1       0.000000000000      0.000000000000      0.729009503558
    2       0.000000000000      0.000000000000      0.680014689943
    3       0.000000000000      0.000000000000     -0.325459787368
    4       0.000000000000      0.000000000000      0.109511547050
    5       0.000000000000      0.000000000000     -0.892453897214
    6       0.000000000000      0.000000000000     -0.786600836667
    7       0.000000000000      0.000000000000      0.909604457911
    8       0.000000000000      0.000000000000      0.525981089698
    9       0.000000000000      0.000000000000     -0.012605305622
   10       0.000000000000      0.000000000000      0.209563521670
   11       0.000000000000      0.000000000000     -0.334590822234
   12       0.000000000000      0.000000000000     -0.767143763797
   13       0.000000000000      0.000000000000     -0.591011201116
   14       0.000000000000      0.000000000000      0.474917076838
   15       0.000000000000      0.000000000000     -0.535652424171
   16       0.000000000000      0.000000000000     -0.535652424171

 cartesian coordinates (angstrom) at end:
    1      2.05385096415820    -0.00000000010000     4.66646814753657
    2     -0.00000000010000     2.05385096415820     7.41609796202207
    3      2.05385096415820    -0.00000000010000    10.10219663818585
    4     -0.00000000010000     2.05385096415820    12.85182645267135
    5      2.05385096415820    -0.00000000010000    15.53792512883510
    6     -0.00000000010000     2.05385096415820    18.28755494332064
    7     -0.00000000010000     2.05385096415820     4.69823335569745
    8      2.05385096415820    -0.00000000010000     7.39198612818800
    9     -0.00000000010000     2.05385096415820    10.14446552598321
   10      2.05385096415820    -0.00000000010000    12.83334865925724
   11     -0.00000000010000     2.05385096415820    15.58582805705242
   12      2.05385096415820    -0.00000000010000    18.27471119032648
   13      2.05385096415820    -0.00000000010000    25.98092374312457
   14     -0.00000000010000     2.05385096415820    28.97403457015915
   15      2.05385096415820     2.05385096415820    27.47747915629152
   16     -0.00000000010000    -0.00000000010000    27.47747915629152

 cartesian forces (hartree/bohr) at end:
    1     -0.00000000000000    -0.00000000000000    -0.01461874566337
    2     -0.00000000000000    -0.00000000000000    -0.01372391209638
    3     -0.00000000000000    -0.00000000000000     0.00463991555501
    4     -0.00000000000000    -0.00000000000000    -0.00330433245804
    5     -0.00000000000000    -0.00000000000000     0.01499540676590
    6     -0.00000000000000    -0.00000000000000     0.01306212312309
    7     -0.00000000000000    -0.00000000000000    -0.01791710349470
    8     -0.00000000000000    -0.00000000000000    -0.01091066665729
    9     -0.00000000000000    -0.00000000000000    -0.00107400947480
   10     -0.00000000000000    -0.00000000000000    -0.00513166598024
   11     -0.00000000000000    -0.00000000000000     0.00480668333911
   12     -0.00000000000000    -0.00000000000000     0.01270676220558
   13     -0.00000000000000    -0.00000000000000     0.00948990479362
   14     -0.00000000000000    -0.00000000000000    -0.00997804156087
   15     -0.00000000000000    -0.00000000000000     0.00847884080169
   16     -0.00000000000000    -0.00000000000000     0.00847884080169
 frms,max,avg= 6.1500373E-03 1.7917103E-02   0.000E+00  0.000E+00  1.304E-03 h/b

 cartesian forces (eV/Angstrom) at end:
    1     -0.00000000000000    -0.00000000000000    -0.75172606329270
    2     -0.00000000000000    -0.00000000000000    -0.70571187506443
    3     -0.00000000000000    -0.00000000000000     0.23859403087629
    4     -0.00000000000000    -0.00000000000000    -0.16991559246564
    5     -0.00000000000000    -0.00000000000000     0.77109475430911
    6     -0.00000000000000    -0.00000000000000     0.67168132066009
    7     -0.00000000000000    -0.00000000000000    -0.92133442812631
    8     -0.00000000000000    -0.00000000000000    -0.56104899032023
    9     -0.00000000000000    -0.00000000000000    -0.05522778308222
   10     -0.00000000000000    -0.00000000000000    -0.26388085231736
   11     -0.00000000000000    -0.00000000000000     0.24716957440878
   12     -0.00000000000000    -0.00000000000000     0.65340792910369
   13     -0.00000000000000    -0.00000000000000     0.48799048398559
   14     -0.00000000000000    -0.00000000000000    -0.51309148367745
   15     -0.00000000000000    -0.00000000000000     0.43599948750140
   16     -0.00000000000000    -0.00000000000000     0.43599948750140
 frms,max,avg= 3.1624761E-01 9.2133443E-01   0.000E+00  0.000E+00  6.707E-02 e/A
 length scales=  7.762431680422  7.762431680422 54.752990302362 bohr
              =  4.107701928516  4.107701928516 28.974034570159 angstroms
 prteigrs : about to open file Cs2TiI6o_DS1_EIG
 Fermi (or HOMO) energy (hartree) =   0.14073   Average Vxc (hartree)=  -0.31636
 Eigenvalues (hartree) for nkpt=  15  k points:
 kpt#   1, nband=128, wtk=  0.04000, kpt=  0.0500  0.0500  0.2500 (reduced coord)
  -4.73287   -4.73287   -2.97015   -2.97011   -2.96780   -2.96743   -2.96737   -2.96709
  -1.68160   -1.68139   -1.68058   -1.68008   -1.67955   -1.67933   -1.67930   -1.67864
  -1.67837   -1.67814   -1.67754   -1.67724   -1.67633   -1.67611   -1.67588   -1.67551
  -1.67486   -1.67444   -1.67356   -1.67349   -1.67250   -1.67199   -1.67133   -1.67114
  -1.67031   -1.67019   -1.66939   -1.66889   -1.66478   -1.66454   -1.65240   -1.65214
  -1.64975   -1.64866   -1.64850   -1.64753   -1.64694   -1.64580   -1.64359   -1.64337
  -0.67388   -0.67220   -0.67197   -0.67184   -0.67106   -0.67099   -0.67085   -0.67076
  -0.66979   -0.66976   -0.66679   -0.66560   -0.66539   -0.66491   -0.66449   -0.66434
  -0.66424   -0.66413   -0.66412   -0.66359   -0.66349   -0.66333   -0.66332   -0.66217
  -0.66193   -0.66190   -0.66077   -0.66065   -0.66041   -0.66038   -0.42710   -0.41482
  -0.40390   -0.39842   -0.37806   -0.37746   -0.35878   -0.35374   -0.19530   -0.19363
  -0.19287   -0.19278   -0.19210   -0.18010   -0.18000   -0.17827   -0.17367   -0.17206
  -0.14138   -0.13942   -0.11560   -0.11066   -0.07898   -0.07720   -0.07531   -0.04915
  -0.03771   -0.03208   -0.02335   -0.01483   -0.01278   -0.00642   -0.00536   -0.00444
   0.00537    0.01525    0.02358    0.03357    0.03408    0.03988    0.04153    0.05049
   0.05253    0.05480    0.06400    0.06455    0.09748    0.10778    0.14542    0.16434
 prteigrs : prtvol=0 or 1, do not print more k-points.


--- !EnergyTerms
iteration_state     : {dtset: 1, }
comment             : Components of total free energy in Hartree
kinetic             :  1.05987474313225E+03
hartree             :  1.44011087942322E+03
xc                  : -3.67299582151182E+02
Ewald energy        : -1.00876546673181E+02
psp_core            :  3.70856935381221E+01
local_psp           : -3.29659703035272E+03
non_local_psp       : -6.22937184048604E+02
VdWaals_dft_d       : -1.86845189493614E-01
total_energy        : -1.85082587232158E+03
total_energy_eV     : -5.03635332697620E+04
band_energy         : -2.38623808115733E+02
...


 Cartesian components of stress tensor (hartree/bohr^3)
  sigma(1 1)=  1.56926934E-02  sigma(3 2)=  0.00000000E+00
  sigma(2 2)=  1.56926934E-02  sigma(3 1)=  0.00000000E+00
  sigma(3 3)=  1.54993916E-02  sigma(2 1)=  0.00000000E+00

-Cartesian components of stress tensor (GPa)         [Pressure= -4.5980E+02 GPa]
- sigma(1 1)=  4.61694901E+02  sigma(3 2)=  0.00000000E+00
- sigma(2 2)=  4.61694901E+02  sigma(3 1)=  0.00000000E+00
- sigma(3 3)=  4.56007768E+02  sigma(2 1)=  0.00000000E+00

================================================================================
== DATASET  2 ==================================================================
-   mpi_nproc: 4, omp_nthreads: -1 (-1 if OMP is not activated)


--- !DatasetInfo
iteration_state: {dtset: 2, }
dimensions: {natom: 16, nkpt: 15, mband: 300, nsppol: 1, nspinor: 1, nspden: 1, mpw: 16862, }
cutoff_energies: {ecut:  22.5, pawecutdg:  -1.0, }
electrons: {nelect:   2.52000000E+02, charge:   0.00000000E+00, occopt:   1.00000000E+00, tsmear:   1.00000000E-02, }
meta: {optdriver: 0, ionmov: 0, optcell: 0, iscf: -2, paral_kgb: 0, }
...

 mkfilename : getwfk/=0, take file _WFK from output of DATASET   1.

[...]
                       0.000000  0.000000  0.000000  0.000000  0.000000  0.000000
                       0.000000  0.000000  0.000000  0.000000  0.000000  0.000000
                       0.000000  0.000000  0.000000  0.000000  0.000000  0.000000
                       0.000000  0.000000  0.000000  0.000000  0.000000  0.000000
                       0.000000  0.000000  0.000000  0.000000  0.000000  0.000000
                       0.000000  0.000000  0.000000  0.000000  0.000000  0.000000
                       0.000000  0.000000  0.000000  0.000000  0.000000  0.000000
                       0.000000  0.000000  0.000000  0.000000  0.000000  0.000000
                       0.000000  0.000000  0.000000  0.000000  0.000000  0.000000
                       0.000000  0.000000  0.000000  0.000000  0.000000  0.000000
                       0.000000  0.000000  0.000000  0.000000  0.000000  0.000000
                       0.000000  0.000000  0.000000  0.000000  0.000000  0.000000
                       0.000000  0.000000  0.000000  0.000000  0.000000  0.000000
                       0.000000  0.000000  0.000000  0.000000  0.000000  0.000000
              occ6     2.000000  2.000000  2.000000  2.000000  2.000000  2.000000
                       2.000000  2.000000  2.000000  2.000000  2.000000  2.000000
                       2.000000  2.000000  2.000000  2.000000  2.000000  2.000000
                       2.000000  2.000000  2.000000  2.000000  2.000000  2.000000
                       2.000000  2.000000  2.000000  2.000000  2.000000  2.000000
                       2.000000  2.000000  2.000000  2.000000  2.000000  2.000000
                       2.000000  2.000000  2.000000  2.000000  2.000000  2.000000
                       2.000000  2.000000  2.000000  2.000000  2.000000  2.000000
                       2.000000  2.000000  2.000000  2.000000  2.000000  2.000000
                       2.000000  2.000000  2.000000  2.000000  2.000000  2.000000
                       2.000000  2.000000  2.000000  2.000000  2.000000  2.000000
                       2.000000  2.000000  2.000000  2.000000  2.000000  2.000000
                       2.000000  2.000000  2.000000  2.000000  2.000000  2.000000
                       2.000000  2.000000  2.000000  2.000000  2.000000  2.000000
                       2.000000  2.000000  2.000000  2.000000  2.000000  2.000000
                       2.000000  2.000000  2.000000  2.000000  2.000000  2.000000
                       2.000000  2.000000  2.000000  2.000000  2.000000  2.000000
                       2.000000  2.000000  2.000000  2.000000  2.000000  2.000000
                       2.000000  2.000000  2.000000  2.000000  2.000000  2.000000
                       2.000000  2.000000  2.000000  2.000000  2.000000  2.000000
                       2.000000  2.000000  2.000000  2.000000  2.000000  2.000000
                       0.000000  0.000000  0.000000  0.000000  0.000000  0.000000
                       0.000000  0.000000  0.000000  0.000000  0.000000  0.000000
                       0.000000  0.000000  0.000000  0.000000  0.000000  0.000000
                       0.000000  0.000000  0.000000  0.000000  0.000000  0.000000
                       0.000000  0.000000  0.000000  0.000000  0.000000  0.000000
                       0.000000  0.000000  0.000000  0.000000  0.000000  0.000000
                       0.000000  0.000000  0.000000  0.000000  0.000000  0.000000
                       0.000000  0.000000  0.000000  0.000000  0.000000  0.000000
                       0.000000  0.000000  0.000000  0.000000  0.000000  0.000000
                       0.000000  0.000000  0.000000  0.000000  0.000000  0.000000
                       0.000000  0.000000  0.000000  0.000000  0.000000  0.000000
                       0.000000  0.000000  0.000000  0.000000  0.000000  0.000000
                       0.000000  0.000000  0.000000  0.000000  0.000000  0.000000
                       0.000000  0.000000  0.000000  0.000000  0.000000  0.000000
                       0.000000  0.000000  0.000000  0.000000  0.000000  0.000000
                       0.000000  0.000000  0.000000  0.000000  0.000000  0.000000
                       0.000000  0.000000  0.000000  0.000000  0.000000  0.000000
                       0.000000  0.000000  0.000000  0.000000  0.000000  0.000000
                       0.000000  0.000000  0.000000  0.000000  0.000000  0.000000
                       0.000000  0.000000  0.000000  0.000000  0.000000  0.000000
                       0.000000  0.000000  0.000000  0.000000  0.000000  0.000000
                       0.000000  0.000000  0.000000  0.000000  0.000000  0.000000
                       0.000000  0.000000  0.000000  0.000000  0.000000  0.000000
                       0.000000  0.000000  0.000000  0.000000  0.000000  0.000000
                       0.000000  0.000000  0.000000  0.000000  0.000000  0.000000
                       0.000000  0.000000  0.000000  0.000000  0.000000  0.000000
                       0.000000  0.000000  0.000000  0.000000  0.000000  0.000000
                       0.000000  0.000000  0.000000  0.000000  0.000000  0.000000
                       0.000000  0.000000  0.000000  0.000000  0.000000  0.000000
        optdriver1          0
        optdriver2          0
        optdriver3          0
        optdriver4          1
        optdriver5          1
        optdriver6          1
            prtwf1          1
            prtwf2          1
            prtwf3          1
            prtwf4          3
            prtwf5          3
            prtwf6          3
            rfdir1          0       0       0
            rfdir2          0       0       0
            rfdir3          0       0       0
            rfdir4          1       0       0
            rfdir5          0       1       0
            rfdir6          0       0       1
           rfelfd1          0
           rfelfd2          0
           rfelfd3          0
           rfelfd4          2
           rfelfd5          2
           rfelfd6          2
           shiftk      5.00000000E-01  5.00000000E-01  5.00000000E-01
          spgroup          99
           strten1     1.5692693374E-02  1.5692693374E-02  1.5499391597E-02
                       0.0000000000E+00  0.0000000000E+00  0.0000000000E+00
           symrel      1  0  0   0  1  0   0  0  1       1  0  0   0 -1  0   0  0  1
                      -1  0  0   0 -1  0   0  0  1      -1  0  0   0  1  0   0  0  1
                       0  1  0   1  0  0   0  0  1       0  1  0  -1  0  0   0  0  1
                       0 -1  0  -1  0  0   0  0  1       0 -1  0   1  0  0   0  0  1
            tnons      0.0000000  0.0000000  0.0000000     0.0000000 -0.0000000  0.0000000
                      -0.0000000 -0.0000000  0.0000000    -0.0000000  0.0000000  0.0000000
                       0.5000000  0.5000000  0.0000000     0.5000000  0.5000000  0.0000000
                       0.5000000  0.5000000  0.0000000     0.5000000  0.5000000  0.0000000
           tolwfr      1.00000000E-20
            typat      1  1  1  1  1  1  2  2  2  2  2  2  2  2  3  3
           vdw_xc           5
              wtk1       0.04000    0.08000    0.08000    0.08000    0.08000    0.04000
                         0.08000    0.08000    0.08000    0.04000    0.08000    0.08000
                         0.04000    0.08000    0.04000
              wtk2       0.04000    0.08000    0.08000    0.08000    0.08000    0.04000
                         0.08000    0.08000    0.08000    0.04000    0.08000    0.08000
                         0.04000    0.08000    0.04000
              wtk3       0.01000    0.01000    0.01000    0.01000    0.01000    0.01000
                         0.01000    0.01000    0.01000    0.01000    0.01000    0.01000
                         0.01000    0.01000    0.01000    0.01000    0.01000    0.01000
                         0.01000    0.01000    0.01000    0.01000    0.01000    0.01000
                         0.01000    0.01000    0.01000    0.01000    0.01000    0.01000
                         0.01000    0.01000    0.01000    0.01000    0.01000    0.01000
                         0.01000    0.01000    0.01000    0.01000    0.01000    0.01000
                         0.01000    0.01000    0.01000    0.01000    0.01000    0.01000
                         0.01000    0.01000
              wtk4       0.01000    0.01000    0.01000    0.01000    0.01000    0.01000
                         0.01000    0.01000    0.01000    0.01000    0.01000    0.01000
                         0.01000    0.01000    0.01000    0.01000    0.01000    0.01000
                         0.01000    0.01000    0.01000    0.01000    0.01000    0.01000
                         0.01000    0.01000    0.01000    0.01000    0.01000    0.01000
                         0.01000    0.01000    0.01000    0.01000    0.01000    0.01000
                         0.01000    0.01000    0.01000    0.01000    0.01000    0.01000
                         0.01000    0.01000    0.01000    0.01000    0.01000    0.01000
                         0.01000    0.01000
              wtk5       0.01000    0.01000    0.01000    0.01000    0.01000    0.01000
                         0.01000    0.01000    0.01000    0.01000    0.01000    0.01000
                         0.01000    0.01000    0.01000    0.01000    0.01000    0.01000
                         0.01000    0.01000    0.01000    0.01000    0.01000    0.01000
                         0.01000    0.01000    0.01000    0.01000    0.01000    0.01000
                         0.01000    0.01000    0.01000    0.01000    0.01000    0.01000
                         0.01000    0.01000    0.01000    0.01000    0.01000    0.01000
                         0.01000    0.01000    0.01000    0.01000    0.01000    0.01000
                         0.01000    0.01000
              wtk6       0.01000    0.01000    0.01000    0.01000    0.01000    0.01000
                         0.01000    0.01000    0.01000    0.01000    0.01000    0.01000
                         0.01000    0.01000    0.01000    0.01000    0.01000    0.01000
                         0.01000    0.01000    0.01000    0.01000    0.01000    0.01000
                         0.01000    0.01000    0.01000    0.01000    0.01000    0.01000
                         0.01000    0.01000    0.01000    0.01000    0.01000    0.01000
                         0.01000    0.01000    0.01000    0.01000    0.01000    0.01000
                         0.01000    0.01000    0.01000    0.01000    0.01000    0.01000
                         0.01000    0.01000
                       outvars : Printing only first  50 k-points.
           xangst      2.0538509642E+00 -1.0000005802E-10  4.6664681475E+00
                      -1.0000005802E-10  2.0538509642E+00  7.4160979620E+00
                       2.0538509642E+00 -1.0000005802E-10  1.0102196638E+01
                      -1.0000005802E-10  2.0538509642E+00  1.2851826453E+01
                       2.0538509642E+00 -1.0000005802E-10  1.5537925129E+01
                      -1.0000005802E-10  2.0538509642E+00  1.8287554943E+01
                      -1.0000005802E-10  2.0538509642E+00  4.6982333557E+00
                       2.0538509642E+00 -1.0000005802E-10  7.3919861282E+00
                      -1.0000005802E-10  2.0538509642E+00  1.0144465526E+01
                       2.0538509642E+00 -1.0000005802E-10  1.2833348659E+01
                      -1.0000005802E-10  2.0538509642E+00  1.5585828057E+01
                       2.0538509642E+00 -1.0000005802E-10  1.8274711190E+01
                       2.0538509642E+00 -1.0000005802E-10  2.5980923743E+01
                      -1.0000005802E-10  2.0538509642E+00  2.8974034570E+01
                       2.0538509642E+00  2.0538509642E+00  2.7477479156E+01
                      -1.0000005802E-10 -1.0000005802E-10  2.7477479156E+01
            xcart      3.8812158400E+00 -1.8897272293E-10  8.8183468067E+00
                      -1.8897272293E-10  3.8812158400E+00  1.4014394123E+01
                       3.8812158400E+00 -1.8897272293E-10  1.9090384987E+01
                      -1.8897272293E-10  3.8812158400E+00  2.4286432303E+01
                       3.8812158400E+00 -1.8897272293E-10  2.9362423167E+01
                      -1.8897272293E-10  3.8812158400E+00  3.4558470483E+01
                      -1.8897272293E-10  3.8812158400E+00  8.8783743507E+00
                       3.8812158400E+00 -1.8897272293E-10  1.3968829360E+01
                      -1.8897272293E-10  3.8812158400E+00  1.9170261609E+01
                       3.8812158400E+00 -1.8897272293E-10  2.4251514334E+01
                      -1.8897272293E-10  3.8812158400E+00  2.9452946582E+01
                       3.8812158400E+00 -1.8897272293E-10  3.4534199307E+01
                       3.8812158400E+00 -1.8897272293E-10  4.9096830554E+01
                      -1.8897272293E-10  3.8812158400E+00  5.4752990302E+01
                       3.8812158400E+00  3.8812158400E+00  5.1924910427E+01
                      -1.8897272293E-10 -1.8897272293E-10  5.1924910427E+01
             xred      4.9999999998E-01 -2.4344526395E-11  1.6105689859E-01
                      -2.4344526395E-11  4.9999999998E-01  2.5595668922E-01
                       4.9999999998E-01 -2.4344526395E-11  3.4866378770E-01
                      -2.4344526395E-11  4.9999999998E-01  4.4356357833E-01
                       4.9999999998E-01 -2.4344526395E-11  5.3627067681E-01
                      -2.4344526395E-11  4.9999999998E-01  6.3117046744E-01
                      -2.4344526395E-11  4.9999999998E-01  1.6215323221E-01
                       4.9999999998E-01 -2.4344526395E-11  2.5512450157E-01
                      -2.4344526395E-11  4.9999999998E-01  3.5012264175E-01
                       4.9999999998E-01 -2.4344526395E-11  4.4292584204E-01
                      -2.4344526395E-11  4.9999999998E-01  5.3792398222E-01
                       4.9999999998E-01 -2.4344526395E-11  6.3072718251E-01
                       4.9999999998E-01 -2.4344526395E-11  8.9669678830E-01
                      -2.4344526395E-11  4.9999999998E-01  1.0000000000E+00
                       4.9999999998E-01  4.9999999998E-01  9.4834839414E-01
                      -2.4344526395E-11 -2.4344526395E-11  9.4834839414E-01
            znucl       50.00000   34.00000   30.00000

================================================================================


- Timing analysis has been suppressed with timopt=0



================================================================================

 Suggested references for the acknowledgment of ABINIT usage.

 The users of ABINIT have little formal obligations with respect to the ABINIT group
 (those specified in the GNU General Public License, http://www.gnu.org/copyleft/gpl.txt).
 However, it is common practice in the scientific literature,
 to acknowledge the efforts of people that have made the research possible.
 In this spirit, please find below suggested citations of work written by ABINIT developers,
 corresponding to implementations inside of ABINIT that you have used in the present run.
 Note also that it will be of great value to readers of publications presenting these results,
 to read papers enabling them to understand the theoretical formalism and details
 of the ABINIT implementation.
 For information on why they are suggested, see also https://docs.abinit.org/theory/acknowledgments.
-
- [1] The Abinit project: Impact, environment and recent developments.
- Computer Phys. Comm. 248, 107042 (2020).
- X.Gonze, B. Amadon, G. Antonius, F.Arnardi, L.Baguet, J.-M.Beuken,
- J.Bieder, F.Bottin, J.Bouchet, E.Bousquet, N.Brouwer, F.Bruneval,
- G.Brunin, T.Cavignac, J.-B. Charraud, Wei Chen, M.Cote, S.Cottenier,
- J.Denier, G.Geneste, Ph.Ghosez, M.Giantomassi, Y.Gillet, O.Gingras,
- D.R.Hamann, G.Hautier, Xu He, N.Helbig, N.Holzwarth, Y.Jia, F.Jollet,
- W.Lafargue-Dit-Hauret, K.Lejaeghere, M.A.L.Marques, A.Martin, C.Martins,
- H.P.C. Miranda, F.Naccarato, K. Persson, G.Petretto, V.Planes, Y.Pouillon,
- S.Prokhorenko, F.Ricci, G.-M.Rignanese, A.H.Romero, M.M.Schmitt, M.Torrent,
- M.J.van Setten, B.Van Troeye, M.J.Verstraete, G.Zerah and J.W.Zwanzig
- Comment: the fifth generic paper describing the ABINIT project.
- Note that a version of this paper, that is not formatted for Computer Phys. Comm. 
- is available at https://www.abinit.org/sites/default/files/ABINIT20.pdf .
- The licence allows the authors to put it on the Web.
- DOI and bibtex: see https://docs.abinit.org/theory/bibliography/#gonze2020
-
- [2] First-principles responses of solids to atomic displacements and homogeneous electric fields:,
- implementation of a conjugate-gradient algorithm. X. Gonze, Phys. Rev. B55, 10337 (1997).
- Comment: Non-vanishing rfphon and/or rfelfd, in the norm-conserving case.
- DOI and bibtex: see https://docs.abinit.org/theory/bibliography/#gonze1997
-
- [3] Dynamical matrices, Born effective charges, dielectric permittivity tensors, and ,
- interatomic force constants from density-functional perturbation theory,
- X. Gonze and C. Lee, Phys. Rev. B55, 10355 (1997).
- Comment: Non-vanishing rfphon and/or rfelfd, in the norm-conserving case.
- DOI and bibtex: see https://docs.abinit.org/theory/bibliography/#gonze1997a
-
- [4] Optimized norm-conserving Vanderbilt pseudopotentials.
- D.R. Hamann, Phys. Rev. B 88, 085117 (2013).
- Comment: Some pseudopotential generated using the ONCVPSP code were used.
- DOI and bibtex: see https://docs.abinit.org/theory/bibliography/#hamann2013
-
- [5] ABINIT: Overview, and focus on selected capabilities
- J. Chem. Phys. 152, 124102 (2020).
- A. Romero, D.C. Allan, B. Amadon, G. Antonius, T. Applencourt, L.Baguet,
- J.Bieder, F.Bottin, J.Bouchet, E.Bousquet, F.Bruneval,
- G.Brunin, D.Caliste, M.Cote,
- J.Denier, C. Dreyer, Ph.Ghosez, M.Giantomassi, Y.Gillet, O.Gingras,
- D.R.Hamann, G.Hautier, F.Jollet, G. Jomard,
- A.Martin, 
- H.P.C. Miranda, F.Naccarato, G.Petretto, N.A. Pike, V.Planes,
- S.Prokhorenko, T. Rangel, F.Ricci, G.-M.Rignanese, M.Royo, M.Stengel, M.Torrent,
- M.J.van Setten, B.Van Troeye, M.J.Verstraete, J.Wiktor, J.W.Zwanziger, and X.Gonze.
- Comment: a global overview of ABINIT, with focus on selected capabilities .
- Note that a version of this paper, that is not formatted for J. Chem. Phys 
- is available at https://www.abinit.org/sites/default/files/ABINIT20_JPC.pdf .
- The licence allows the authors to put it on the Web.
- DOI and bibtex: see https://docs.abinit.org/theory/bibliography/#romero2020
-
- [6] Recent developments in the ABINIT software package.
- Computer Phys. Comm. 205, 106 (2016).
- X.Gonze, F.Jollet, F.Abreu Araujo, D.Adams, B.Amadon, T.Applencourt,
- C.Audouze, J.-M.Beuken, J.Bieder, A.Bokhanchuk, E.Bousquet, F.Bruneval
- D.Caliste, M.Cote, F.Dahm, F.Da Pieve, M.Delaveau, M.Di Gennaro,
- B.Dorado, C.Espejo, G.Geneste, L.Genovese, A.Gerossier, M.Giantomassi,
- Y.Gillet, D.R.Hamann, L.He, G.Jomard, J.Laflamme Janssen, S.Le Roux,
- A.Levitt, A.Lherbier, F.Liu, I.Lukacevic, A.Martin, C.Martins,
- M.J.T.Oliveira, S.Ponce, Y.Pouillon, T.Rangel, G.-M.Rignanese,
- A.H.Romero, B.Rousseau, O.Rubel, A.A.Shukri, M.Stankovski, M.Torrent,
- M.J.Van Setten, B.Van Troeye, M.J.Verstraete, D.Waroquier, J.Wiktor,
- B.Xu, A.Zhou, J.W.Zwanziger.
- Comment: the fourth generic paper describing the ABINIT project.
- Note that a version of this paper, that is not formatted for Computer Phys. Comm. 
- is available at https://www.abinit.org/sites/default/files/ABINIT16.pdf .
- The licence allows the authors to put it on the Web.
- DOI and bibtex: see https://docs.abinit.org/theory/bibliography/#gonze2016
-
- Proc.   0 individual time (sec): cpu=      22872.9  wall=      22905.2

================================================================================

 Calculation completed.
.Delivered   7 WARNINGs and   0 COMMENTs to log file.
+Overall time at end (sec) : cpu=      91494.7  wall=      91620.5
