
.Version 9.2.2 of ABINIT 
.(MPI version, prepared for a x86_64_linux_gnu9.3 computer) 

.Copyright (C) 1998-2020 ABINIT group . 
 ABINIT comes with ABSOLUTELY NO WARRANTY.
 It is free software, and you are welcome to redistribute it
 under certain conditions (GNU General Public License,
 see ~abinit/COPYING or http://www.gnu.org/copyleft/gpl.txt).

 ABINIT is a project of the Universite Catholique de Louvain,
 Corning Inc. and other collaborators, see ~abinit/doc/developers/contributors.txt .
 Please read https://docs.abinit.org/theory/acknowledgments for suggested
 acknowledgments of the ABINIT effort.
 For more information, see https://www.abinit.org .

.Starting date : Fri  1 Mar 2024.
- ( at 04h06 )
  
- The starting date is more than 3 years after the initial release
- of this version of ABINIT, namely Nov 2020.
- This version of ABINIT is not supported anymore.
- Action: please, switch to a more recent version of ABINIT.
- input  file    -> Cs2TiI6.in
- output file    -> Cs2TiI6.out
- root for input  files -> Cs2TiI6i
- root for output files -> Cs2TiI6o


 Symmetries : space group P4/n m m (#129); Bravais tP (primitive tetrag.)
================================================================================
 Values of the parameters that define the memory need of the present run
     intxc =       0    ionmov =       0      iscf =      17    lmnmax =       6
     lnmax =       6     mgfft =     288  mpssoang =       3    mqgrid =   13649
     natom =      20  nloc_mem =       1    nspden =       1   nspinor =       1
    nsppol =       1      nsym =      16    n1xccc =    2501    ntypat =       2
    occopt =       1   xclevel =       2
-    mband =         153        mffmem =           1         mkmem =           2
       mpw =       19680          nfft =      373248          nkpt =          10
================================================================================
P This job should need less than                     225.069 Mbytes of memory.
  Rough estimation (10% accuracy) of disk space for files :
_ WF disk file :    459.450 Mbytes ; DEN or POT disk file :      2.850 Mbytes.
================================================================================

--------------------------------------------------------------------------------
------------- Echo of variables that govern the present computation ------------
--------------------------------------------------------------------------------
-
- outvars: echo of selected default values                                      
-   iomode0 =  0 , fftalg0 =112 , wfoptalg0 =  0
-
- outvars: echo of global parameters not present in the input file              
-  max_nthreads =    0
-
 -outvars: echo values of preprocessed input variables --------
            acell      7.7624316804E+00  7.7624316804E+00  7.7624316804E+00 Bohr
              amu      1.18710000E+02  7.89600000E+01
           diemac      1.20000000E+01
             ecut      2.25000000E+01 Hartree
-          fftalg         112
             iscf          17
              ixc          11
              kpt      6.25000000E-02  6.25000000E-02  5.00000000E-01
                       1.87500000E-01  6.25000000E-02  5.00000000E-01
                       3.12500000E-01  6.25000000E-02  5.00000000E-01
                       4.37500000E-01  6.25000000E-02  5.00000000E-01
                       1.87500000E-01  1.87500000E-01  5.00000000E-01
                       3.12500000E-01  1.87500000E-01  5.00000000E-01
                       4.37500000E-01  1.87500000E-01  5.00000000E-01
                       3.12500000E-01  3.12500000E-01  5.00000000E-01
                       4.37500000E-01  3.12500000E-01  5.00000000E-01
                       4.37500000E-01  4.37500000E-01  5.00000000E-01
         kptrlatt        8    0    0      0    8    0      0    0    1
          kptrlen      6.20994534E+01
P           mkmem           2
            natom          20
            nband         153
            ngfft          36      36     288
             nkpt          10
            nstep         150
             nsym          16
           ntypat           2
              occ      2.000000  2.000000  2.000000  2.000000  2.000000  2.000000
                       2.000000  2.000000  2.000000  2.000000  2.000000  2.000000
                       2.000000  2.000000  2.000000  2.000000  2.000000  2.000000
                       2.000000  2.000000  2.000000  2.000000  2.000000  2.000000
                       2.000000  2.000000  2.000000  2.000000  2.000000  2.000000
                       2.000000  2.000000  2.000000  2.000000  2.000000  2.000000
                       2.000000  2.000000  2.000000  2.000000  2.000000  2.000000
                       2.000000  2.000000  2.000000  2.000000  2.000000  2.000000
                       2.000000  2.000000  2.000000  2.000000  2.000000  2.000000
                       2.000000  2.000000  2.000000  2.000000  2.000000  2.000000
                       2.000000  2.000000  2.000000  2.000000  2.000000  2.000000
                       2.000000  2.000000  2.000000  2.000000  2.000000  2.000000
                       2.000000  2.000000  2.000000  2.000000  2.000000  2.000000
                       2.000000  2.000000  2.000000  2.000000  2.000000  2.000000
                       2.000000  2.000000  2.000000  2.000000  2.000000  2.000000
                       2.000000  2.000000  2.000000  2.000000  2.000000  2.000000
                       2.000000  2.000000  2.000000  2.000000  2.000000  2.000000
                       2.000000  2.000000  2.000000  2.000000  2.000000  2.000000
                       2.000000  2.000000  2.000000  2.000000  2.000000  2.000000
                       2.000000  2.000000  2.000000  2.000000  2.000000  2.000000
                       2.000000  2.000000  2.000000  2.000000  2.000000  2.000000
                       2.000000  2.000000  2.000000  2.000000  2.000000  2.000000
                       2.000000  2.000000  2.000000  2.000000  2.000000  2.000000
                       2.000000  2.000000  2.000000  2.000000  2.000000  2.000000
                       2.000000  2.000000  2.000000  2.000000  2.000000  2.000000
                       0.000000  0.000000  0.000000
           prtcif           1
            rprim      1.0000000000E+00  0.0000000000E+00  0.0000000000E+00
                       0.0000000000E+00  1.0000000000E+00  0.0000000000E+00
                       1.0000000000E-15  1.0000000000E-15  8.2346474988E+00
           shiftk      5.00000000E-01  5.00000000E-01  5.00000000E-01
          spgroup         129
           symrel      1  0  0   0  1  0   0  0  1      -1  0  0   0 -1  0   0  0 -1
                      -1  0  0   0  1  0   0  0 -1       1  0  0   0 -1  0   0  0  1
                      -1  0  0   0 -1  0   0  0  1       1  0  0   0  1  0   0  0 -1
                       1  0  0   0 -1  0   0  0 -1      -1  0  0   0  1  0   0  0  1
                       0  1  0   1  0  0   0  0  1       0 -1  0  -1  0  0   0  0 -1
                       0 -1  0   1  0  0   0  0 -1       0  1  0  -1  0  0   0  0  1
                       0 -1  0  -1  0  0   0  0  1       0  1  0   1  0  0   0  0 -1
                       0  1  0  -1  0  0   0  0 -1       0 -1  0   1  0  0   0  0  1
            tnons      0.0000000  0.0000000  0.0000000     0.5000000  0.5000000 -0.0000000
                       0.5000000  0.5000000 -0.0000000     0.0000000  0.0000000  0.0000000
                       0.0000000  0.0000000  0.0000000     0.5000000  0.5000000 -0.0000000
                       0.5000000  0.5000000 -0.0000000     0.0000000  0.0000000  0.0000000
                       0.5000000  0.5000000  0.0000000     0.0000000 -0.0000000 -0.0000000
                       0.0000000 -0.0000000 -0.0000000     0.5000000  0.5000000  0.0000000
                       0.5000000  0.5000000  0.0000000     0.0000000 -0.0000000 -0.0000000
                       0.0000000 -0.0000000 -0.0000000     0.5000000  0.5000000  0.0000000
           toldfe      1.00000000E-06 Hartree
            typat      1  1  1  1  1  1  1  1  1  1  2  2  2  2  2  2  2  2  2  2
           vdw_xc           5
              wtk        0.06250    0.12500    0.12500    0.12500    0.06250    0.12500
                         0.12500    0.06250    0.12500    0.06250
           xangst      2.0538509643E+00  5.6668623495E-16  4.6664613872E+00
                       9.0059721702E-16  2.0538509643E+00  7.4161006205E+00
                       2.0538509643E+00  1.2267898272E-15  1.0102181782E+01
                       1.5607008092E-15  2.0538509643E+00  1.2851821015E+01
                       2.0538509643E+00  1.8868975271E-15  1.5537936002E+01
                       2.2208044014E-15  2.0538509643E+00  1.8287541410E+01
                       2.0538509643E+00  2.5470011193E-15  2.0973656396E+01
                       2.8809121014E-15  2.0538509643E+00  2.3723295630E+01
                       2.0538509643E+00  3.2071047115E-15  2.6409376791E+01
                       3.5410156936E-15  2.0538509643E+00  2.9159016024E+01
                       5.7054336706E-16  2.0538509643E+00  4.6982235105E+00
                       2.0538509643E+00  8.9674008491E-16  7.3843384972E+00
                       1.2306510670E-15  2.0538509643E+00  1.0133977731E+01
                       2.0538509643E+00  1.5568436771E-15  1.2820058892E+01
                       1.8907546592E-15  2.0538509643E+00  1.5569698125E+01
                       2.0538509643E+00  2.2169472693E-15  1.8255779286E+01
                       2.5508582514E-15  2.0538509643E+00  2.1005418520E+01
                       2.0538509643E+00  2.8770508615E-15  2.3691499681E+01
                       3.2109618436E-15  2.0538509643E+00  2.6441138914E+01
                       2.0538509643E+00  3.5371585615E-15  2.9127253901E+01
            xcart      3.8812158402E+00  1.0708817873E-15  8.8183340316E+00
                       1.7018820962E-15  3.8812158402E+00  1.4014399147E+01
                       3.8812158402E+00  2.3182967959E-15  1.9090356912E+01
                       2.9492971048E-15  3.8812158402E+00  2.4286422027E+01
                       3.8812158402E+00  3.5657195670E-15  2.9362443714E+01
                       4.1967121134E-15  3.8812158402E+00  3.4558444908E+01
                       3.8812158402E+00  4.8131345756E-15  3.9634466594E+01
                       5.4441348845E-15  3.8812158402E+00  4.4830531709E+01
                       3.8812158402E+00  6.0605495842E-15  4.9906489475E+01
                       6.6915498931E-15  3.8812158402E+00  5.5102554590E+01
                       1.0781707107E-15  3.8812158402E+00  8.8783557460E+00
                       3.8812158402E+00  1.6945931729E-15  1.3954377432E+01
                       2.3255934817E-15  3.8812158402E+00  1.9150442547E+01
                       3.8812158402E+00  2.9420081815E-15  2.4226400313E+01
                       3.5730084903E-15  3.8812158402E+00  2.9422465428E+01
                       3.8812158402E+00  4.1894231901E-15  3.4498423194E+01
                       4.8204234990E-15  3.8812158402E+00  3.9694488309E+01
                       3.8812158402E+00  5.4368381987E-15  4.4770446074E+01
                       6.0678385076E-15  3.8812158402E+00  4.9966511189E+01
                       3.8812158402E+00  6.6842609697E-15  5.5042532876E+01
             xred      5.0000000000E-01  2.4353571625E-32  1.3795700000E-01
                       5.0797376041E-32  5.0000000000E-01  2.1924600000E-01
                       5.0000000000E-01  2.7935998402E-32  2.9865600000E-01
                       5.0759962419E-33  5.0000000000E-01  3.7994500000E-01
                       5.0000000000E-01  1.2723263435E-31  4.5935600000E-01
                       8.2614132883E-32  5.0000000000E-01  5.4064400000E-01
                       5.0000000000E-01  4.4307255740E-32  6.2005500000E-01
                      -2.1580505234E-32  5.0000000000E-01  7.0134400000E-01
                       5.0000000000E-01  1.4067353567E-31  7.8075400000E-01
                       1.6084129232E-31  5.0000000000E-01  8.6204300000E-01
                       2.5800961354E-32  5.0000000000E-01  1.3889600000E-01
                       5.0000000000E-01 -3.0918441455E-33  2.1830700000E-01
                       2.9628008034E-32  5.0000000000E-01  2.9959600000E-01
                       5.0000000000E-01  2.5142485920E-32  3.7900600000E-01
                       5.1586290336E-32  5.0000000000E-01  4.6029500000E-01
                       5.0000000000E-01  5.9652863747E-32  5.3970500000E-01
                       1.7842823355E-31  5.0000000000E-01  6.2099400000E-01
                       5.0000000000E-01  1.3091495263E-31  7.0040400000E-01
                       1.6363480480E-31  5.0000000000E-01  7.8169300000E-01
                       5.0000000000E-01  1.3788002319E-31  8.6110400000E-01
            znucl       50.00000   34.00000

================================================================================

 chkinp: Checking input parameters for consistency.

================================================================================
== DATASET  1 ==================================================================
-   mpi_nproc: 6, omp_nthreads: -1 (-1 if OMP is not activated)


--- !DatasetInfo
iteration_state: {dtset: 1, }
dimensions: {natom: 20, nkpt: 10, mband: 153, nsppol: 1, nspinor: 1, nspden: 1, mpw: 19680, }
cutoff_energies: {ecut:  22.5, pawecutdg:  -1.0, }
electrons: {nelect:   3.00000000E+02, charge:   0.00000000E+00, occopt:   1.00000000E+00, tsmear:   1.00000000E-02, }
meta: {optdriver: 0, ionmov: 0, optcell: 0, iscf: 17, paral_kgb: 0, }
...

 Exchange-correlation functional for the present dataset will be:
  GGA: Perdew-Burke-Ernzerhof functional - ixc=11
 Citation for XC functional:
  J.P.Perdew, K.Burke, M.Ernzerhof, PRL 77, 3865 (1996)

 Real(R)+Recip(G) space primitive vectors, cartesian coordinates (Bohr,Bohr^-1):
 R(1)=  7.7624317  0.0000000  0.0000000  G(1)=  0.1288256  0.0000000  0.0000000
 R(2)=  0.0000000  7.7624317  0.0000000  G(2)=  0.0000000  0.1288256  0.0000000
 R(3)=  0.0000000  0.0000000 63.9208886  G(3)=  0.0000000  0.0000000  0.0156443
 Unit cell volume ucvol=  3.8515752E+03 bohr^3
 Angles (23,13,12)=  9.00000000E+01  9.00000000E+01  9.00000000E+01 degrees

 getcut: wavevector=  0.0000  0.0000  0.0000  ngfft=  36  36 288
         ecut(hartree)=     22.500   => boxcut(ratio)=   2.11005

--- Pseudopotential description ------------------------------------------------
- pspini: atom type   1  psp file is ../../../Psps_for_tests/ATOMICDATA_NC/Sn.psp8
- pspatm: opening atomic psp file    ../../../Psps_for_tests/ATOMICDATA_NC/Sn.psp8
- Sn    ONCVPSP  r_core=  2.27  2.62  1.86
- 50.00000  14.00000    150810                znucl, zion, pspdat
    8   11    2    4       600   0.00000      pspcod,pspxc,lmax,lloc,mmax,r2well
    5.99000000000000    6.50000000000000    0.00000000000000   rchrg,fchrg,qchrg
     nproj     2     2     2
     extension_switch     1
  pspatm : epsatm=   32.65190642
         --- l  ekb(1:nproj) -->
             0    5.462393    0.682281
             1    4.443814    0.825686
             2   -5.382195   -1.704077
 pspatm: atomic psp has been read  and splines computed

- pspini: atom type   2  psp file is ../../../Psps_for_tests/ATOMICDATA_NC/Se.psp8
- pspatm: opening atomic psp file    ../../../Psps_for_tests/ATOMICDATA_NC/Se.psp8
- Se    ONCVPSP  r_core=  1.82  1.50  1.91
- 34.00000  16.00000    150729                znucl, zion, pspdat
    8   11    2    4       600   0.00000      pspcod,pspxc,lmax,lloc,mmax,r2well
    5.99000000000000    5.00000000000000    0.00000000000000   rchrg,fchrg,qchrg
     nproj     2     2     2
     extension_switch     1
  pspatm : epsatm=   29.53325930
         --- l  ekb(1:nproj) -->
             0    8.612261    0.939919
             1    6.984962    1.281898
             2   -9.322521   -3.856218
 pspatm: atomic psp has been read  and splines computed

   1.86555497E+05                                ecore*ucvol(ha*bohr**3)
--------------------------------------------------------------------------------

_setup2: Arith. and geom. avg. npw (full set) are   19633.625   19633.615

================================================================================

--- !BeginCycle
iteration_state: {dtset: 1, }
solver: {iscf: 17, nstep: 150, nline: 4, wfoptalg: 0, }
tolerances: {toldfe: 1.00E-06, }
...

     iter   Etot(hartree)      deltaE(h)  residm     nres2
 ETOT  1  -1957.9514825680    -1.958E+03 8.956E-01 4.000E+02
 ETOT  2  -1992.2184015449    -3.427E+01 2.802E-02 2.530E+02
 ETOT  3  -1994.4849308794    -2.267E+00 5.512E-01 9.051E+01
 ETOT  4  -2011.3746713288    -1.689E+01 8.455E-01 5.905E+02
 ETOT  5  -1999.6583004693     1.172E+01 1.303E-01 5.501E+02
 ETOT  6  -1983.3099108350     1.635E+01 1.662E+00 2.264E+01
 ETOT  7  -1994.5892749906    -1.128E+01 1.407E-01 1.207E+02
 ETOT  8  -1992.9936758055     1.596E+00 1.702E-02 1.122E+02
 ETOT  9  -1991.6525190861     1.341E+00 1.870E-02 8.653E+01
 ETOT 10  -1990.5188379130     1.134E+00 2.503E-02 5.228E+01
 ETOT 11  -1989.8076499971     7.112E-01 3.340E-02 3.240E+01
 ETOT 12  -1989.8916415865    -8.399E-02 2.495E-02 2.970E+01
 ETOT 13  -1989.7593496500     1.323E-01 1.342E-02 2.682E+01
 ETOT 14  -1989.8118523804    -5.250E-02 4.558E-02 1.724E+01
 ETOT 15  -1989.7872524549     2.460E-02 1.227E-02 1.111E+01
 ETOT 16  -1989.4949681549     2.923E-01 1.760E-02 6.619E+00
 ETOT 17  -1989.5206528280    -2.568E-02 5.226E-03 5.185E+00
 ETOT 18  -1989.5261039552    -5.451E-03 2.156E-02 3.075E+00
 ETOT 19  -1989.6900568083    -1.640E-01 1.523E-02 4.887E+00
 ETOT 20  -1989.4122353702     2.778E-01 2.682E-02 1.897E+00
 ETOT 21  -1989.8382234981    -4.260E-01 1.726E-02 8.188E+00
 ETOT 22  -1989.3827779547     4.554E-01 7.143E-03 5.616E-01
 ETOT 23  -1989.4178290130    -3.505E-02 1.455E-02 1.785E-01
 ETOT 24  -1989.4234014772    -5.572E-03 2.753E-03 9.965E-02
 ETOT 25  -1989.4167008293     6.701E-03 1.194E-03 3.653E-02
 ETOT 26  -1989.4140940625     2.607E-03 5.715E-04 1.462E-02
 ETOT 27  -1989.4138554256     2.386E-04 3.910E-04 5.824E-03
 ETOT 28  -1989.4136031742     2.523E-04 2.735E-04 1.424E-03
 ETOT 29  -1989.4134942034     1.090E-04 2.930E-04 1.240E-03
 ETOT 30  -1989.4134987892    -4.586E-06 1.664E-04 6.827E-04
 ETOT 31  -1989.4135105136    -1.172E-05 9.013E-05 2.506E-04
 ETOT 32  -1989.4135393826    -2.887E-05 1.237E-04 1.294E-04
 ETOT 33  -1989.4135688605    -2.948E-05 4.844E-05 5.170E-05
 ETOT 34  -1989.4136037763    -3.492E-05 7.592E-05 7.309E-06
 ETOT 35  -1989.4136087071    -4.931E-06 2.678E-05 1.551E-06
 ETOT 36  -1989.4136089854    -2.783E-07 4.362E-05 9.755E-08
 ETOT 37  -1989.4136090082    -2.283E-08 1.432E-05 1.554E-08

 At SCF step   37, etot is converged : 
  for the second time, diff in etot=  2.283E-08 < toldfe=  1.000E-06

 Cartesian components of stress tensor (hartree/bohr^3)
  sigma(1 1)=  1.48569188E-02  sigma(3 2)=  0.00000000E+00
  sigma(2 2)=  1.48569188E-02  sigma(3 1)=  0.00000000E+00
  sigma(3 3)=  1.44949116E-02  sigma(2 1)=  0.00000000E+00


--- !ResultsGS
iteration_state: {dtset: 1, }
comment   : Summary of ground state results
lattice_vectors:
- [  7.7624317,   0.0000000,   0.0000000, ]
- [  0.0000000,   7.7624317,   0.0000000, ]
- [  0.0000000,   0.0000000,  63.9208886, ]
lattice_lengths: [   7.76243,    7.76243,   63.92089, ]
lattice_angles: [ 90.000,  90.000,  90.000, ] # degrees, (23, 13, 12)
lattice_volume:   3.8515752E+03
convergence: {deltae: -2.283E-08, res2:  1.554E-08, residm:  1.432E-05, diffor: null, }
etotal    :  -1.98941361E+03
entropy   :   0.00000000E+00
fermie    :   1.74871462E-01
cartesian_stress_tensor: # hartree/bohr^3
- [  1.48569188E-02,   0.00000000E+00,   0.00000000E+00, ]
- [  0.00000000E+00,   1.48569188E-02,   0.00000000E+00, ]
- [  0.00000000E+00,   0.00000000E+00,   1.44949116E-02, ]
pressure_GPa:  -4.3356E+02
xred      :
- [  5.0000E-01,   2.4354E-32,   1.3796E-01, Sn]
- [  5.0797E-32,   5.0000E-01,   2.1925E-01, Sn]
- [  5.0000E-01,   2.7936E-32,   2.9866E-01, Sn]
- [  5.0760E-33,   5.0000E-01,   3.7994E-01, Sn]
- [  5.0000E-01,   1.2723E-31,   4.5936E-01, Sn]
- [  8.2614E-32,   5.0000E-01,   5.4064E-01, Sn]
- [  5.0000E-01,   4.4307E-32,   6.2005E-01, Sn]
- [ -2.1581E-32,   5.0000E-01,   7.0134E-01, Sn]
- [  5.0000E-01,   1.4067E-31,   7.8075E-01, Sn]
- [  1.6084E-31,   5.0000E-01,   8.6204E-01, Sn]
- [  2.5801E-32,   5.0000E-01,   1.3890E-01, Se]
- [  5.0000E-01,  -3.0918E-33,   2.1831E-01, Se]
- [  2.9628E-32,   5.0000E-01,   2.9960E-01, Se]
- [  5.0000E-01,   2.5142E-32,   3.7901E-01, Se]
- [  5.1586E-32,   5.0000E-01,   4.6029E-01, Se]
- [  5.0000E-01,   5.9653E-32,   5.3970E-01, Se]
- [  1.7843E-31,   5.0000E-01,   6.2099E-01, Se]
- [  5.0000E-01,   1.3091E-31,   7.0040E-01, Se]
- [  1.6363E-31,   5.0000E-01,   7.8169E-01, Se]
- [  5.0000E-01,   1.3788E-31,   8.6110E-01, Se]
cartesian_forces: # hartree/bohr
- [  7.11378414E-32,   8.13003902E-32,  -1.32500585E-02, ]
- [  7.11378414E-32,   8.13003902E-32,  -1.29200609E-02, ]
- [ -3.35364109E-31,   8.13003902E-32,   3.82139741E-03, ]
- [  7.11378414E-32,   8.13003902E-32,  -1.26603510E-03, ]
- [ -1.14836801E-30,  -1.54470741E-30,   1.20753655E-03, ]
- [  7.11378414E-32,   8.13003902E-32,  -1.20753655E-03, ]
- [  2.74388817E-31,   8.13003902E-32,   1.26603510E-03, ]
- [  1.69714564E-30,   1.70730819E-30,  -3.82139741E-03, ]
- [ -1.14836801E-30,  -1.54470741E-30,   1.29200609E-02, ]
- [  7.11378414E-32,   8.13003902E-32,   1.32500585E-02, ]
- [  7.11378414E-32,   8.94304292E-31,  -1.48046150E-02, ]
- [  7.11378414E-32,   8.13003902E-32,  -9.70064101E-03, ]
- [  7.11378414E-32,  -7.31703511E-31,   1.44004108E-03, ]
- [  7.11378414E-32,   8.13003902E-32,   7.22611429E-04, ]
- [  1.69714564E-30,   8.94304292E-31,  -1.97011086E-03, ]
- [ -3.35364109E-31,   8.13003902E-32,   1.97011086E-03, ]
- [  7.11378414E-32,   8.13003902E-32,  -7.22611429E-04, ]
- [  7.11378414E-32,   8.13003902E-32,  -1.44004108E-03, ]
- [  7.11378414E-32,   8.13003902E-32,   9.70064101E-03, ]
- [ -1.55486996E-30,  -7.31703511E-31,   1.48046150E-02, ]
force_length_stats: {min:   7.22611429E-04, max:   1.48046150E-02, mean:   6.11031079E-03, }
...

 Integrated electronic density in atomic spheres:
 ------------------------------------------------
 Atom  Sphere_radius  Integrated_density
    1        2.00000         10.55551389
    2        2.00000         10.57375419
    3        2.00000         10.56415896
    4        2.00000         10.58895133
    5        2.00000         10.58137123
    6        2.00000         10.58137123
    7        2.00000         10.58895133
    8        2.00000         10.56415896
    9        2.00000         10.57375419
   10        2.00000         10.55551389
   11        2.00000         13.27725479
   12        2.00000         13.31158621
   13        2.00000         13.32926328
   14        2.00000         13.31144356
   15        2.00000         13.33530135
   16        2.00000         13.33530135
   17        2.00000         13.31144356
   18        2.00000         13.32926328
   19        2.00000         13.31158621
   20        2.00000         13.27725479
================================================================================

 ----iterations are completed or convergence reached----

 Mean square residual over all n,k,spin=   41.993E-09; max=  14.324E-06
 reduced coordinates (array xred) for   20 atoms
       0.500000000000      0.000000000000      0.137957000000
       0.000000000000      0.500000000000      0.219246000000
       0.500000000000      0.000000000000      0.298656000000
       0.000000000000      0.500000000000      0.379945000000
       0.500000000000      0.000000000000      0.459356000000
       0.000000000000      0.500000000000      0.540644000000
       0.500000000000      0.000000000000      0.620055000000
      -0.000000000000      0.500000000000      0.701344000000
       0.500000000000      0.000000000000      0.780754000000
       0.000000000000      0.500000000000      0.862043000000
       0.000000000000      0.500000000000      0.138896000000
       0.500000000000     -0.000000000000      0.218307000000
       0.000000000000      0.500000000000      0.299596000000
       0.500000000000      0.000000000000      0.379006000000
       0.000000000000      0.500000000000      0.460295000000
       0.500000000000      0.000000000000      0.539705000000
       0.000000000000      0.500000000000      0.620994000000
       0.500000000000      0.000000000000      0.700404000000
       0.000000000000      0.500000000000      0.781693000000
       0.500000000000      0.000000000000      0.861104000000
 rms dE/dt=  3.0430E-01; max dE/dt=  9.4632E-01; dE/dt below (all hartree)
    1       0.000000000000      0.000000000000      0.846955515809
    2       0.000000000000      0.000000000000      0.825861774613
    3       0.000000000000      0.000000000000     -0.244267118454
    4       0.000000000000      0.000000000000      0.080926088775
    5       0.000000000000      0.000000000000     -0.077186809190
    6       0.000000000000      0.000000000000      0.077186809190
    7      -0.000000000000      0.000000000000     -0.080926088775
    8      -0.000000000000     -0.000000000000      0.244267118454
    9       0.000000000000      0.000000000000     -0.825861774613
   10       0.000000000000      0.000000000000     -0.846955515809
   11       0.000000000000     -0.000000000000      0.946324146267
   12       0.000000000000      0.000000000000      0.620073593290
   13       0.000000000000      0.000000000000     -0.092048705743
   14       0.000000000000      0.000000000000     -0.046189964651
   15      -0.000000000000     -0.000000000000      0.125931236986
   16       0.000000000000      0.000000000000     -0.125931236986
   17       0.000000000000      0.000000000000      0.046189964651
   18       0.000000000000      0.000000000000      0.092048705743
   19       0.000000000000      0.000000000000     -0.620073593290
   20       0.000000000000      0.000000000000     -0.946324146267

 cartesian coordinates (angstrom) at end:
    1      2.05385096425820     0.00000000000000     4.66646138723868
    2      0.00000000000000     2.05385096425820     7.41610062053054
    3      2.05385096425820     0.00000000000000    10.10218178176646
    4      0.00000000000000     2.05385096425820    12.85182101505833
    5      2.05385096425820     0.00000000000000    15.53793600177166
    6      0.00000000000000     2.05385096425820    18.28754140958610
    7      2.05385096425820     0.00000000000000    20.97365639629944
    8      0.00000000000000     2.05385096425820    23.72329562959130
    9      2.05385096425820     0.00000000000000    26.40937679082721
   10      0.00000000000000     2.05385096425820    29.15901602411908
   11      0.00000000000000     2.05385096425820     4.69822351052795
   12      2.05385096425820     0.00000000000000     7.38433849724128
   13      0.00000000000000     2.05385096425820    10.13397773053314
   14      2.05385096425820     0.00000000000000    12.82005889176906
   15      0.00000000000000     2.05385096425820    15.56969812506092
   16      2.05385096425820     0.00000000000000    18.25577928629684
   17      0.00000000000000     2.05385096425820    21.00541851958870
   18      2.05385096425820     0.00000000000000    23.69149968082462
   19      0.00000000000000     2.05385096425820    26.44113891411648
   20      2.05385096425820     0.00000000000000    29.12725390082981

 cartesian forces (hartree/bohr) at end:
    1      0.00000000000000     0.00000000000000    -0.01325005853443
    2      0.00000000000000     0.00000000000000    -0.01292006091315
    3     -0.00000000000000     0.00000000000000     0.00382139741360
    4      0.00000000000000     0.00000000000000    -0.00126603510245
    5     -0.00000000000000    -0.00000000000000     0.00120753654798
    6      0.00000000000000     0.00000000000000    -0.00120753654798
    7      0.00000000000000     0.00000000000000     0.00126603510245
    8      0.00000000000000     0.00000000000000    -0.00382139741360
    9     -0.00000000000000    -0.00000000000000     0.01292006091315
   10      0.00000000000000     0.00000000000000     0.01325005853443
   11      0.00000000000000     0.00000000000000    -0.01480461499635
   12      0.00000000000000     0.00000000000000    -0.00970064100581
   13      0.00000000000000    -0.00000000000000     0.00144004108403
   14      0.00000000000000     0.00000000000000     0.00072261142870
   15      0.00000000000000     0.00000000000000    -0.00197011086206
   16     -0.00000000000000     0.00000000000000     0.00197011086206
   17      0.00000000000000     0.00000000000000    -0.00072261142870
   18      0.00000000000000     0.00000000000000    -0.00144004108403
   19      0.00000000000000     0.00000000000000     0.00970064100581
   20     -0.00000000000000    -0.00000000000000     0.01480461499635
 frms,max,avg= 4.7606455E-03 1.4804615E-02   0.000E+00  0.000E+00  0.000E+00 h/b

 cartesian forces (eV/Angstrom) at end:
    1      0.00000000000000     0.00000000000000    -0.68134534725829
    2      0.00000000000000     0.00000000000000    -0.66437618872326
    3     -0.00000000000000     0.00000000000000     0.19650413928482
    4      0.00000000000000     0.00000000000000    -0.06510213704165
    5     -0.00000000000000    -0.00000000000000     0.06209402067736
    6      0.00000000000000     0.00000000000000    -0.06209402067736
    7      0.00000000000000     0.00000000000000     0.06510213704165
    8      0.00000000000000     0.00000000000000    -0.19650413928482
    9     -0.00000000000000    -0.00000000000000     0.66437618872326
   10      0.00000000000000     0.00000000000000     0.68134534725829
   11      0.00000000000000     0.00000000000000    -0.76128384787892
   12      0.00000000000000     0.00000000000000    -0.49882697480584
   13      0.00000000000000    -0.00000000000000     0.07404988362218
   14      0.00000000000000     0.00000000000000     0.03715817055023
   15      0.00000000000000     0.00000000000000    -0.10130716524460
   16     -0.00000000000000     0.00000000000000     0.10130716524460
   17      0.00000000000000     0.00000000000000    -0.03715817055023
   18      0.00000000000000     0.00000000000000    -0.07404988362218
   19      0.00000000000000     0.00000000000000     0.49882697480584
   20     -0.00000000000000    -0.00000000000000     0.76128384787892
 frms,max,avg= 2.4480222E-01 7.6128385E-01   0.000E+00  0.000E+00  0.000E+00 e/A
 length scales=  7.762431680422  7.762431680422  7.762431680422 bohr
              =  4.107701928516  4.107701928516  4.107701928516 angstroms
 prteigrs : about to open file Cs2TiI6o_EIG
 Fermi (or HOMO) energy (hartree) =   0.17487   Average Vxc (hartree)=  -0.33782
 Eigenvalues (hartree) for nkpt=  10  k points:
 kpt#   1, nband=153, wtk=  0.06250, kpt=  0.0625  0.0625  0.5000 (reduced coord)
  -1.64423   -1.64370   -1.64338   -1.64296   -1.64236   -1.64211   -1.64195   -1.64152
  -1.64144   -1.64103   -1.64004   -1.63974   -1.63912   -1.63892   -1.63819   -1.63819
  -1.63812   -1.63794   -1.63733   -1.63723   -1.63644   -1.63611   -1.63601   -1.63596
  -1.63566   -1.63566   -1.63537   -1.63529   -1.63508   -1.63468   -1.63432   -1.63391
  -1.63271   -1.63249   -1.63201   -1.63118   -1.62803   -1.62778   -1.62567   -1.62473
  -1.61501   -1.61456   -1.61438   -1.61414   -1.61340   -1.61124   -1.61018   -1.60984
  -1.60964   -1.60894   -0.63672   -0.63670   -0.63544   -0.63532   -0.63523   -0.63509
  -0.63506   -0.63476   -0.63419   -0.63415   -0.63395   -0.63384   -0.63381   -0.63345
  -0.63335   -0.63323   -0.63314   -0.63269   -0.63265   -0.63259   -0.63242   -0.63238
  -0.63223   -0.63199   -0.63188   -0.63186   -0.63146   -0.63135   -0.63079   -0.63074
  -0.62904   -0.62891   -0.62827   -0.62816   -0.62816   -0.62807   -0.62741   -0.62724
  -0.62666   -0.62663   -0.62651   -0.62650   -0.62623   -0.62619   -0.62618   -0.62616
  -0.62578   -0.62570   -0.62563   -0.62547   -0.39249   -0.38838   -0.38166   -0.37288
  -0.36303   -0.35104   -0.33937   -0.32908   -0.31982   -0.31908   -0.11078   -0.11077
  -0.10284   -0.09920   -0.08835   -0.08090   -0.06767   -0.06109   -0.04632   -0.03449
  -0.02244   -0.01606   -0.00572   -0.00065    0.00275    0.00747    0.01711    0.01777
   0.02080    0.02739    0.02892    0.03430    0.04160    0.04255    0.05402    0.05541
   0.05736    0.05982    0.06493    0.06715    0.07235    0.07262    0.07454    0.09129
   0.09304    0.09776    0.10487    0.13023    0.14241    0.15597    0.23211    0.23888
   0.26636
 prteigrs : prtvol=0 or 1, do not print more k-points.


--- !EnergyTerms
iteration_state     : {dtset: 1, }
comment             : Components of total free energy in Hartree
kinetic             :  1.21604114774213E+03
hartree             :  2.45794992364037E+03
xc                  : -4.58789182535318E+02
Ewald energy        :  8.18009972979471E+02
psp_core            :  4.84361555516399E+01
local_psp           : -5.35389772002171E+03
non_local_psp       : -7.16874503327466E+02
VdWaals_dft_d       : -2.89368222035979E-01
total_energy        : -1.98941357419292E+03
...


--- !EnergyTermsDC
iteration_state     : {dtset: 1, }
comment             : '"Double-counting" decomposition of free energy'
band_energy         : -2.31897842552716E+02
Ewald energy        :  8.18009972979471E+02
psp_core            :  4.84361555516399E+01
xc_dc               : -2.62367252676460E+03
VdWaals_dft_d       : -2.89368222035979E-01
total_energy_dc     : -1.98941360900824E+03
...


 Cartesian components of stress tensor (hartree/bohr^3)
  sigma(1 1)=  1.48569188E-02  sigma(3 2)=  0.00000000E+00
  sigma(2 2)=  1.48569188E-02  sigma(3 1)=  0.00000000E+00
  sigma(3 3)=  1.44949116E-02  sigma(2 1)=  0.00000000E+00

-Cartesian components of stress tensor (GPa)         [Pressure= -4.3356E+02 GPa]
- sigma(1 1)=  4.37105568E+02  sigma(3 2)=  0.00000000E+00
- sigma(2 2)=  4.37105568E+02  sigma(3 1)=  0.00000000E+00
- sigma(3 3)=  4.26454950E+02  sigma(2 1)=  0.00000000E+00

== END DATASET(S) ==============================================================
================================================================================
  
 -outvars: echo values of variables after computation  --------
            acell      7.7624316804E+00  7.7624316804E+00  7.7624316804E+00 Bohr
              amu      1.18710000E+02  7.89600000E+01
           diemac      1.20000000E+01
             ecut      2.25000000E+01 Hartree
           etotal     -1.9894136090E+03
            fcart      7.1137841386E-32  8.1300390156E-32 -1.3250058534E-02
                       7.1137841386E-32  8.1300390156E-32 -1.2920060913E-02
                      -3.3536410939E-31  8.1300390156E-32  3.8213974136E-03
                       7.1137841386E-32  8.1300390156E-32 -1.2660351024E-03
                      -1.1483680110E-30 -1.5447074130E-30  1.2075365480E-03
                       7.1137841386E-32  8.1300390156E-32 -1.2075365480E-03
                       2.7438881678E-31  8.1300390156E-32  1.2660351024E-03
                       1.6971456445E-30  1.7073081933E-30 -3.8213974136E-03
                      -1.1483680110E-30 -1.5447074130E-30  1.2920060913E-02
                       7.1137841386E-32  8.1300390156E-32  1.3250058534E-02
                       7.1137841386E-32  8.9430429171E-31 -1.4804614996E-02
                       7.1137841386E-32  8.1300390156E-32 -9.7006410058E-03
                       7.1137841386E-32 -7.3170351140E-31  1.4400410840E-03
                       7.1137841386E-32  8.1300390156E-32  7.2261142870E-04
                       1.6971456445E-30  8.9430429171E-31 -1.9701108621E-03
                      -3.3536410939E-31  8.1300390156E-32  1.9701108621E-03
                       7.1137841386E-32  8.1300390156E-32 -7.2261142870E-04
                       7.1137841386E-32  8.1300390156E-32 -1.4400410840E-03
                       7.1137841386E-32  8.1300390156E-32  9.7006410058E-03
                      -1.5548699617E-30 -7.3170351140E-31  1.4804614996E-02
-          fftalg         112
             iscf          17
              ixc          11
              kpt      6.25000000E-02  6.25000000E-02  5.00000000E-01
                       1.87500000E-01  6.25000000E-02  5.00000000E-01
                       3.12500000E-01  6.25000000E-02  5.00000000E-01
                       4.37500000E-01  6.25000000E-02  5.00000000E-01
                       1.87500000E-01  1.87500000E-01  5.00000000E-01
                       3.12500000E-01  1.87500000E-01  5.00000000E-01
                       4.37500000E-01  1.87500000E-01  5.00000000E-01
                       3.12500000E-01  3.12500000E-01  5.00000000E-01
                       4.37500000E-01  3.12500000E-01  5.00000000E-01
                       4.37500000E-01  4.37500000E-01  5.00000000E-01
         kptrlatt        8    0    0      0    8    0      0    0    1
          kptrlen      6.20994534E+01
P           mkmem           2
            natom          20
            nband         153
            ngfft          36      36     288
             nkpt          10
            nstep         150
             nsym          16
           ntypat           2
              occ      2.000000  2.000000  2.000000  2.000000  2.000000  2.000000
                       2.000000  2.000000  2.000000  2.000000  2.000000  2.000000
                       2.000000  2.000000  2.000000  2.000000  2.000000  2.000000
                       2.000000  2.000000  2.000000  2.000000  2.000000  2.000000
                       2.000000  2.000000  2.000000  2.000000  2.000000  2.000000
                       2.000000  2.000000  2.000000  2.000000  2.000000  2.000000
                       2.000000  2.000000  2.000000  2.000000  2.000000  2.000000
                       2.000000  2.000000  2.000000  2.000000  2.000000  2.000000
                       2.000000  2.000000  2.000000  2.000000  2.000000  2.000000
                       2.000000  2.000000  2.000000  2.000000  2.000000  2.000000
                       2.000000  2.000000  2.000000  2.000000  2.000000  2.000000
                       2.000000  2.000000  2.000000  2.000000  2.000000  2.000000
                       2.000000  2.000000  2.000000  2.000000  2.000000  2.000000
                       2.000000  2.000000  2.000000  2.000000  2.000000  2.000000
                       2.000000  2.000000  2.000000  2.000000  2.000000  2.000000
                       2.000000  2.000000  2.000000  2.000000  2.000000  2.000000
                       2.000000  2.000000  2.000000  2.000000  2.000000  2.000000
                       2.000000  2.000000  2.000000  2.000000  2.000000  2.000000
                       2.000000  2.000000  2.000000  2.000000  2.000000  2.000000
                       2.000000  2.000000  2.000000  2.000000  2.000000  2.000000
                       2.000000  2.000000  2.000000  2.000000  2.000000  2.000000
                       2.000000  2.000000  2.000000  2.000000  2.000000  2.000000
                       2.000000  2.000000  2.000000  2.000000  2.000000  2.000000
                       2.000000  2.000000  2.000000  2.000000  2.000000  2.000000
                       2.000000  2.000000  2.000000  2.000000  2.000000  2.000000
                       0.000000  0.000000  0.000000
           prtcif           1
            rprim      1.0000000000E+00  0.0000000000E+00  0.0000000000E+00
                       0.0000000000E+00  1.0000000000E+00  0.0000000000E+00
                       1.0000000000E-15  1.0000000000E-15  8.2346474988E+00
           shiftk      5.00000000E-01  5.00000000E-01  5.00000000E-01
          spgroup         129
           strten      1.4856918779E-02  1.4856918779E-02  1.4494911569E-02
                       0.0000000000E+00  0.0000000000E+00  0.0000000000E+00
           symrel      1  0  0   0  1  0   0  0  1      -1  0  0   0 -1  0   0  0 -1
                      -1  0  0   0  1  0   0  0 -1       1  0  0   0 -1  0   0  0  1
                      -1  0  0   0 -1  0   0  0  1       1  0  0   0  1  0   0  0 -1
                       1  0  0   0 -1  0   0  0 -1      -1  0  0   0  1  0   0  0  1
                       0  1  0   1  0  0   0  0  1       0 -1  0  -1  0  0   0  0 -1
                       0 -1  0   1  0  0   0  0 -1       0  1  0  -1  0  0   0  0  1
                       0 -1  0  -1  0  0   0  0  1       0  1  0   1  0  0   0  0 -1
                       0  1  0  -1  0  0   0  0 -1       0 -1  0   1  0  0   0  0  1
            tnons      0.0000000  0.0000000  0.0000000     0.5000000  0.5000000 -0.0000000
                       0.5000000  0.5000000 -0.0000000     0.0000000  0.0000000  0.0000000
                       0.0000000  0.0000000  0.0000000     0.5000000  0.5000000 -0.0000000
                       0.5000000  0.5000000 -0.0000000     0.0000000  0.0000000  0.0000000
                       0.5000000  0.5000000  0.0000000     0.0000000 -0.0000000 -0.0000000
                       0.0000000 -0.0000000 -0.0000000     0.5000000  0.5000000  0.0000000
                       0.5000000  0.5000000  0.0000000     0.0000000 -0.0000000 -0.0000000
                       0.0000000 -0.0000000 -0.0000000     0.5000000  0.5000000  0.0000000
           toldfe      1.00000000E-06 Hartree
            typat      1  1  1  1  1  1  1  1  1  1  2  2  2  2  2  2  2  2  2  2
           vdw_xc           5
              wtk        0.06250    0.12500    0.12500    0.12500    0.06250    0.12500
                         0.12500    0.06250    0.12500    0.06250
           xangst      2.0538509643E+00  5.6668623495E-16  4.6664613872E+00
                       9.0059721702E-16  2.0538509643E+00  7.4161006205E+00
                       2.0538509643E+00  1.2267898272E-15  1.0102181782E+01
                       1.5607008092E-15  2.0538509643E+00  1.2851821015E+01
                       2.0538509643E+00  1.8868975271E-15  1.5537936002E+01
                       2.2208044014E-15  2.0538509643E+00  1.8287541410E+01
                       2.0538509643E+00  2.5470011193E-15  2.0973656396E+01
                       2.8809121014E-15  2.0538509643E+00  2.3723295630E+01
                       2.0538509643E+00  3.2071047115E-15  2.6409376791E+01
                       3.5410156936E-15  2.0538509643E+00  2.9159016024E+01
                       5.7054336706E-16  2.0538509643E+00  4.6982235105E+00
                       2.0538509643E+00  8.9674008491E-16  7.3843384972E+00
                       1.2306510670E-15  2.0538509643E+00  1.0133977731E+01
                       2.0538509643E+00  1.5568436771E-15  1.2820058892E+01
                       1.8907546592E-15  2.0538509643E+00  1.5569698125E+01
                       2.0538509643E+00  2.2169472693E-15  1.8255779286E+01
                       2.5508582514E-15  2.0538509643E+00  2.1005418520E+01
                       2.0538509643E+00  2.8770508615E-15  2.3691499681E+01
                       3.2109618436E-15  2.0538509643E+00  2.6441138914E+01
                       2.0538509643E+00  3.5371585615E-15  2.9127253901E+01
            xcart      3.8812158402E+00  1.0708817873E-15  8.8183340316E+00
                       1.7018820962E-15  3.8812158402E+00  1.4014399147E+01
                       3.8812158402E+00  2.3182967959E-15  1.9090356912E+01
                       2.9492971048E-15  3.8812158402E+00  2.4286422027E+01
                       3.8812158402E+00  3.5657195670E-15  2.9362443714E+01
                       4.1967121134E-15  3.8812158402E+00  3.4558444908E+01
                       3.8812158402E+00  4.8131345756E-15  3.9634466594E+01
                       5.4441348845E-15  3.8812158402E+00  4.4830531709E+01
                       3.8812158402E+00  6.0605495842E-15  4.9906489475E+01
                       6.6915498931E-15  3.8812158402E+00  5.5102554590E+01
                       1.0781707107E-15  3.8812158402E+00  8.8783557460E+00
                       3.8812158402E+00  1.6945931729E-15  1.3954377432E+01
                       2.3255934817E-15  3.8812158402E+00  1.9150442547E+01
                       3.8812158402E+00  2.9420081815E-15  2.4226400313E+01
                       3.5730084903E-15  3.8812158402E+00  2.9422465428E+01
                       3.8812158402E+00  4.1894231901E-15  3.4498423194E+01
                       4.8204234990E-15  3.8812158402E+00  3.9694488309E+01
                       3.8812158402E+00  5.4368381987E-15  4.4770446074E+01
                       6.0678385076E-15  3.8812158402E+00  4.9966511189E+01
                       3.8812158402E+00  6.6842609697E-15  5.5042532876E+01
             xred      5.0000000000E-01  2.4353571625E-32  1.3795700000E-01
                       5.0797376041E-32  5.0000000000E-01  2.1924600000E-01
                       5.0000000000E-01  2.7935998402E-32  2.9865600000E-01
                       5.0759962419E-33  5.0000000000E-01  3.7994500000E-01
                       5.0000000000E-01  1.2723263435E-31  4.5935600000E-01
                       8.2614132883E-32  5.0000000000E-01  5.4064400000E-01
                       5.0000000000E-01  4.4307255740E-32  6.2005500000E-01
                      -2.1580505234E-32  5.0000000000E-01  7.0134400000E-01
                       5.0000000000E-01  1.4067353567E-31  7.8075400000E-01
                       1.6084129232E-31  5.0000000000E-01  8.6204300000E-01
                       2.5800961354E-32  5.0000000000E-01  1.3889600000E-01
                       5.0000000000E-01 -3.0918441455E-33  2.1830700000E-01
                       2.9628008034E-32  5.0000000000E-01  2.9959600000E-01
                       5.0000000000E-01  2.5142485920E-32  3.7900600000E-01
                       5.1586290336E-32  5.0000000000E-01  4.6029500000E-01
                       5.0000000000E-01  5.9652863747E-32  5.3970500000E-01
                       1.7842823355E-31  5.0000000000E-01  6.2099400000E-01
                       5.0000000000E-01  1.3091495263E-31  7.0040400000E-01
                       1.6363480480E-31  5.0000000000E-01  7.8169300000E-01
                       5.0000000000E-01  1.3788002319E-31  8.6110400000E-01
            znucl       50.00000   34.00000

================================================================================


- Timing analysis has been suppressed with timopt=0



================================================================================

 Suggested references for the acknowledgment of ABINIT usage.

 The users of ABINIT have little formal obligations with respect to the ABINIT group
 (those specified in the GNU General Public License, http://www.gnu.org/copyleft/gpl.txt).
 However, it is common practice in the scientific literature,
 to acknowledge the efforts of people that have made the research possible.
 In this spirit, please find below suggested citations of work written by ABINIT developers,
 corresponding to implementations inside of ABINIT that you have used in the present run.
 Note also that it will be of great value to readers of publications presenting these results,
 to read papers enabling them to understand the theoretical formalism and details
 of the ABINIT implementation.
 For information on why they are suggested, see also https://docs.abinit.org/theory/acknowledgments.
-
- [1] The Abinit project: Impact, environment and recent developments.
- Computer Phys. Comm. 248, 107042 (2020).
- X.Gonze, B. Amadon, G. Antonius, F.Arnardi, L.Baguet, J.-M.Beuken,
- J.Bieder, F.Bottin, J.Bouchet, E.Bousquet, N.Brouwer, F.Bruneval,
- G.Brunin, T.Cavignac, J.-B. Charraud, Wei Chen, M.Cote, S.Cottenier,
- J.Denier, G.Geneste, Ph.Ghosez, M.Giantomassi, Y.Gillet, O.Gingras,
- D.R.Hamann, G.Hautier, Xu He, N.Helbig, N.Holzwarth, Y.Jia, F.Jollet,
- W.Lafargue-Dit-Hauret, K.Lejaeghere, M.A.L.Marques, A.Martin, C.Martins,
- H.P.C. Miranda, F.Naccarato, K. Persson, G.Petretto, V.Planes, Y.Pouillon,
- S.Prokhorenko, F.Ricci, G.-M.Rignanese, A.H.Romero, M.M.Schmitt, M.Torrent,
- M.J.van Setten, B.Van Troeye, M.J.Verstraete, G.Zerah and J.W.Zwanzig
- Comment: the fifth generic paper describing the ABINIT project.
- Note that a version of this paper, that is not formatted for Computer Phys. Comm. 
- is available at https://www.abinit.org/sites/default/files/ABINIT20.pdf .
- The licence allows the authors to put it on the Web.
- DOI and bibtex: see https://docs.abinit.org/theory/bibliography/#gonze2020
-
- [2] Optimized norm-conserving Vanderbilt pseudopotentials.
- D.R. Hamann, Phys. Rev. B 88, 085117 (2013).
- Comment: Some pseudopotential generated using the ONCVPSP code were used.
- DOI and bibtex: see https://docs.abinit.org/theory/bibliography/#hamann2013
-
- [3] ABINIT: Overview, and focus on selected capabilities
- J. Chem. Phys. 152, 124102 (2020).
- A. Romero, D.C. Allan, B. Amadon, G. Antonius, T. Applencourt, L.Baguet,
- J.Bieder, F.Bottin, J.Bouchet, E.Bousquet, F.Bruneval,
- G.Brunin, D.Caliste, M.Cote,
- J.Denier, C. Dreyer, Ph.Ghosez, M.Giantomassi, Y.Gillet, O.Gingras,
- D.R.Hamann, G.Hautier, F.Jollet, G. Jomard,
- A.Martin, 
- H.P.C. Miranda, F.Naccarato, G.Petretto, N.A. Pike, V.Planes,
- S.Prokhorenko, T. Rangel, F.Ricci, G.-M.Rignanese, M.Royo, M.Stengel, M.Torrent,
- M.J.van Setten, B.Van Troeye, M.J.Verstraete, J.Wiktor, J.W.Zwanziger, and X.Gonze.
- Comment: a global overview of ABINIT, with focus on selected capabilities .
- Note that a version of this paper, that is not formatted for J. Chem. Phys 
- is available at https://www.abinit.org/sites/default/files/ABINIT20_JPC.pdf .
- The licence allows the authors to put it on the Web.
- DOI and bibtex: see https://docs.abinit.org/theory/bibliography/#romero2020
-
- [4] Recent developments in the ABINIT software package.
- Computer Phys. Comm. 205, 106 (2016).
- X.Gonze, F.Jollet, F.Abreu Araujo, D.Adams, B.Amadon, T.Applencourt,
- C.Audouze, J.-M.Beuken, J.Bieder, A.Bokhanchuk, E.Bousquet, F.Bruneval
- D.Caliste, M.Cote, F.Dahm, F.Da Pieve, M.Delaveau, M.Di Gennaro,
- B.Dorado, C.Espejo, G.Geneste, L.Genovese, A.Gerossier, M.Giantomassi,
- Y.Gillet, D.R.Hamann, L.He, G.Jomard, J.Laflamme Janssen, S.Le Roux,
- A.Levitt, A.Lherbier, F.Liu, I.Lukacevic, A.Martin, C.Martins,
- M.J.T.Oliveira, S.Ponce, Y.Pouillon, T.Rangel, G.-M.Rignanese,
- A.H.Romero, B.Rousseau, O.Rubel, A.A.Shukri, M.Stankovski, M.Torrent,
- M.J.Van Setten, B.Van Troeye, M.J.Verstraete, D.Waroquier, J.Wiktor,
- B.Xu, A.Zhou, J.W.Zwanziger.
- Comment: the fourth generic paper describing the ABINIT project.
- Note that a version of this paper, that is not formatted for Computer Phys. Comm. 
- is available at https://www.abinit.org/sites/default/files/ABINIT16.pdf .
- The licence allows the authors to put it on the Web.
- DOI and bibtex: see https://docs.abinit.org/theory/bibliography/#gonze2016
-
- And optionally:
-
- [5] ABINIT: First-principles approach of materials and nanosystem properties.
- Computer Phys. Comm. 180, 2582-2615 (2009).
- X. Gonze, B. Amadon, P.-M. Anglade, J.-M. Beuken, F. Bottin, P. Boulanger, F. Bruneval,
- D. Caliste, R. Caracas, M. Cote, T. Deutsch, L. Genovese, Ph. Ghosez, M. Giantomassi
- S. Goedecker, D.R. Hamann, P. Hermet, F. Jollet, G. Jomard, S. Leroux, M. Mancini, S. Mazevet,
- M.J.T. Oliveira, G. Onida, Y. Pouillon, T. Rangel, G.-M. Rignanese, D. Sangalli, R. Shaltaf,
- M. Torrent, M.J. Verstraete, G. Zerah, J.W. Zwanziger
- Comment: the third generic paper describing the ABINIT project.
- Note that a version of this paper, that is not formatted for Computer Phys. Comm. 
- is available at https://www.abinit.org/sites/default/files/ABINIT_CPC_v10.pdf .
- The licence allows the authors to put it on the Web.
- DOI and bibtex: see https://docs.abinit.org/theory/bibliography/#gonze2009
-
- Proc.   0 individual time (sec): cpu=       3864.3  wall=       3864.4

================================================================================

 Calculation completed.
.Delivered   0 WARNINGs and   0 COMMENTs to log file.
+Overall time at end (sec) : cpu=      23186.0  wall=      23186.4
