
.Version 9.2.2 of ABINIT 
.(MPI version, prepared for a x86_64_linux_gnu9.3 computer) 

.Copyright (C) 1998-2020 ABINIT group . 
 ABINIT comes with ABSOLUTELY NO WARRANTY.
 It is free software, and you are welcome to redistribute it
 under certain conditions (GNU General Public License,
 see ~abinit/COPYING or http://www.gnu.org/copyleft/gpl.txt).

 ABINIT is a project of the Universite Catholique de Louvain,
 Corning Inc. and other collaborators, see ~abinit/doc/developers/contributors.txt .
 Please read https://docs.abinit.org/theory/acknowledgments for suggested
 acknowledgments of the ABINIT effort.
 For more information, see https://www.abinit.org .

.Starting date : Tue 27 Feb 2024.
- ( at 23h23 )
  
- The starting date is more than 3 years after the initial release
- of this version of ABINIT, namely Nov 2020.
- This version of ABINIT is not supported anymore.
- Action: please, switch to a more recent version of ABINIT.
- input  file    -> Cs2TiI6.in
- output file    -> Cs2TiI6.out
- root for input  files -> Cs2TiI6i
- root for output files -> Cs2TiI6o


 DATASET    1 : space group P4 m m (# 99); Bravais tP (primitive tetrag.)
================================================================================
 Values of the parameters that define the memory need for DATASET  1.
     intxc =       0    ionmov =       0      iscf =       7    lmnmax =       6
     lnmax =       6     mgfft =     216  mpssoang =       3    mqgrid =   10359
     natom =      14  nloc_mem =       1    nspden =       1   nspinor =       1
    nsppol =       1      nsym =       8    n1xccc =    2501    ntypat =       2
    occopt =       1   xclevel =       2
-    mband =         107        mffmem =           1         mkmem =           2
       mpw =       14938          nfft =      279936          nkpt =          10
================================================================================
P This job should need less than                     142.273 Mbytes of memory.
  Rough estimation (10% accuracy) of disk space for files :
_ WF disk file :    243.893 Mbytes ; DEN or POT disk file :      2.138 Mbytes.
================================================================================


 DATASET    2 : space group P4 m m (# 99); Bravais tP (primitive tetrag.)
================================================================================
 Values of the parameters that define the memory need for DATASET  2.
     intxc =       0    ionmov =       0      iscf =      -2    lmnmax =       6
     lnmax =       6     mgfft =     216  mpssoang =       3    mqgrid =   10359
     natom =      14  nloc_mem =       1    nspden =       1   nspinor =       1
    nsppol =       1      nsym =       8    n1xccc =    2501    ntypat =       2
    occopt =       1   xclevel =       2
-    mband =         220        mffmem =           1         mkmem =           2
       mpw =       14938          nfft =      279936          nkpt =          10
================================================================================
P This job should need less than                     157.505 Mbytes of memory.
  Rough estimation (10% accuracy) of disk space for files :
_ WF disk file :    501.461 Mbytes ; DEN or POT disk file :      2.138 Mbytes.
================================================================================


 DATASET    3 : space group P4 m m (# 99); Bravais tP (primitive tetrag.)
================================================================================
 Values of the parameters that define the memory need for DATASET  3.
     intxc =       0    ionmov =       0      iscf =      -2    lmnmax =       6
     lnmax =       6     mgfft =     216  mpssoang =       3    mqgrid =   10359
     natom =      14  nloc_mem =       1    nspden =       1   nspinor =       1
    nsppol =       1      nsym =       8    n1xccc =    2501    ntypat =       2
    occopt =       1   xclevel =       2
-    mband =         220        mffmem =           1         mkmem =           6
       mpw =       14938          nfft =      279936          nkpt =          32
================================================================================
P This job should need less than                     358.883 Mbytes of memory.
  Rough estimation (10% accuracy) of disk space for files :
_ WF disk file :   1604.670 Mbytes ; DEN or POT disk file :      2.138 Mbytes.
================================================================================


 DATASET    4 : space group P4 m m (# 99); Bravais tP (primitive tetrag.)
================================================================================
 Values of the parameters that define the memory need for DATASET  4 (RF).
     intxc =       0      iscf =      -3    lmnmax =       6     lnmax =       6
     mgfft =     216  mpssoang =       3    mqgrid =   10359     natom =      14
  nloc_mem =       1    nspden =       1   nspinor =       1    nsppol =       1
      nsym =       8    n1xccc =    2501    ntypat =       2    occopt =       1
   xclevel =       2
-    mband =         220        mffmem =           1         mkmem =           6
-   mkqmem =           6        mk1mem =           6           mpw =       14938
      nfft =      279936          nkpt =          32
================================================================================
P This job should need less than                     996.805 Mbytes of memory.
  Rough estimation (10% accuracy) of disk space for files :
_ WF disk file :   1604.670 Mbytes ; DEN or POT disk file :      2.138 Mbytes.
================================================================================


 DATASET    5 : space group P4 m m (# 99); Bravais tP (primitive tetrag.)
================================================================================
 Values of the parameters that define the memory need for DATASET  5 (RF).
     intxc =       0      iscf =      -3    lmnmax =       6     lnmax =       6
     mgfft =     216  mpssoang =       3    mqgrid =   10359     natom =      14
  nloc_mem =       1    nspden =       1   nspinor =       1    nsppol =       1
      nsym =       8    n1xccc =    2501    ntypat =       2    occopt =       1
   xclevel =       2
-    mband =         220        mffmem =           1         mkmem =           6
-   mkqmem =           6        mk1mem =           6           mpw =       14938
      nfft =      279936          nkpt =          32
================================================================================
P This job should need less than                     996.805 Mbytes of memory.
  Rough estimation (10% accuracy) of disk space for files :
_ WF disk file :   1604.670 Mbytes ; DEN or POT disk file :      2.138 Mbytes.
================================================================================


 DATASET    6 : space group P4 m m (# 99); Bravais tP (primitive tetrag.)
================================================================================
 Values of the parameters that define the memory need for DATASET  6 (RF).
     intxc =       0      iscf =      -3    lmnmax =       6     lnmax =       6
     mgfft =     216  mpssoang =       3    mqgrid =   10359     natom =      14
  nloc_mem =       1    nspden =       1   nspinor =       1    nsppol =       1
      nsym =       8    n1xccc =    2501    ntypat =       2    occopt =       1
   xclevel =       2
-    mband =         220        mffmem =           1         mkmem =           6
-   mkqmem =           6        mk1mem =           6           mpw =       14938
      nfft =      279936          nkpt =          32
================================================================================
P This job should need less than                     996.805 Mbytes of memory.
  Rough estimation (10% accuracy) of disk space for files :
_ WF disk file :   1604.670 Mbytes ; DEN or POT disk file :      2.138 Mbytes.
================================================================================

--------------------------------------------------------------------------------
------------- Echo of variables that govern the present computation ------------
--------------------------------------------------------------------------------
-
- outvars: echo of selected default values                                      
-   iomode0 =  0 , fftalg0 =112 , wfoptalg0 =  0
-
- outvars: echo of global parameters not present in the input file              
-  max_nthreads =    0
-
 -outvars: echo values of preprocessed input variables --------
            acell      7.7624316804E+00  7.7624316804E+00  7.7624316804E+00 Bohr
              amu      1.18710000E+02  7.89600000E+01
           diemac      1.20000000E+01
             ecut      2.25000000E+01 Hartree
-          fftalg         112
           getden1          0
           getden2          1
           getden3          1
           getden4          0
           getden5          0
           getden6          0
           getwfk1          0
           getwfk2          1
           getwfk3          2
           getwfk4          3
           getwfk5          3
           getwfk6          3
             iscf1          7
             iscf2         -2
             iscf3         -2
             iscf4         -3
             iscf5         -3
             iscf6         -3
              ixc          11
           jdtset        1    2    3    4    5    6
              kpt1     6.25000000E-02  6.25000000E-02  5.00000000E-01
                       1.87500000E-01  6.25000000E-02  5.00000000E-01
                       3.12500000E-01  6.25000000E-02  5.00000000E-01
                       4.37500000E-01  6.25000000E-02  5.00000000E-01
                       1.87500000E-01  1.87500000E-01  5.00000000E-01
                       3.12500000E-01  1.87500000E-01  5.00000000E-01
                       4.37500000E-01  1.87500000E-01  5.00000000E-01
                       3.12500000E-01  3.12500000E-01  5.00000000E-01
                       4.37500000E-01  3.12500000E-01  5.00000000E-01
                       4.37500000E-01  4.37500000E-01  5.00000000E-01
              kpt2     6.25000000E-02  6.25000000E-02  5.00000000E-01
                       1.87500000E-01  6.25000000E-02  5.00000000E-01
                       3.12500000E-01  6.25000000E-02  5.00000000E-01
                       4.37500000E-01  6.25000000E-02  5.00000000E-01
                       1.87500000E-01  1.87500000E-01  5.00000000E-01
                       3.12500000E-01  1.87500000E-01  5.00000000E-01
                       4.37500000E-01  1.87500000E-01  5.00000000E-01
                       3.12500000E-01  3.12500000E-01  5.00000000E-01
                       4.37500000E-01  3.12500000E-01  5.00000000E-01
                       4.37500000E-01  4.37500000E-01  5.00000000E-01
              kpt3     6.25000000E-02  6.25000000E-02  5.00000000E-01
                       1.87500000E-01  6.25000000E-02  5.00000000E-01
                       3.12500000E-01  6.25000000E-02  5.00000000E-01
                       4.37500000E-01  6.25000000E-02  5.00000000E-01
                      -4.37500000E-01  6.25000000E-02  5.00000000E-01
                      -3.12500000E-01  6.25000000E-02  5.00000000E-01
                      -1.87500000E-01  6.25000000E-02  5.00000000E-01
                      -6.25000000E-02  6.25000000E-02  5.00000000E-01
                       6.25000000E-02  1.87500000E-01  5.00000000E-01
                       1.87500000E-01  1.87500000E-01  5.00000000E-01
                       3.12500000E-01  1.87500000E-01  5.00000000E-01
                       4.37500000E-01  1.87500000E-01  5.00000000E-01
                      -4.37500000E-01  1.87500000E-01  5.00000000E-01
                      -3.12500000E-01  1.87500000E-01  5.00000000E-01
                      -1.87500000E-01  1.87500000E-01  5.00000000E-01
                      -6.25000000E-02  1.87500000E-01  5.00000000E-01
                       6.25000000E-02  3.12500000E-01  5.00000000E-01
                       1.87500000E-01  3.12500000E-01  5.00000000E-01
                       3.12500000E-01  3.12500000E-01  5.00000000E-01
                       4.37500000E-01  3.12500000E-01  5.00000000E-01
                      -4.37500000E-01  3.12500000E-01  5.00000000E-01
                      -3.12500000E-01  3.12500000E-01  5.00000000E-01
                      -1.87500000E-01  3.12500000E-01  5.00000000E-01
                      -6.25000000E-02  3.12500000E-01  5.00000000E-01
                       6.25000000E-02  4.37500000E-01  5.00000000E-01
                       1.87500000E-01  4.37500000E-01  5.00000000E-01
                       3.12500000E-01  4.37500000E-01  5.00000000E-01
                       4.37500000E-01  4.37500000E-01  5.00000000E-01
                      -4.37500000E-01  4.37500000E-01  5.00000000E-01
                      -3.12500000E-01  4.37500000E-01  5.00000000E-01
                      -1.87500000E-01  4.37500000E-01  5.00000000E-01
                      -6.25000000E-02  4.37500000E-01  5.00000000E-01
              kpt4     6.25000000E-02  6.25000000E-02  5.00000000E-01
                       1.87500000E-01  6.25000000E-02  5.00000000E-01
                       3.12500000E-01  6.25000000E-02  5.00000000E-01
                       4.37500000E-01  6.25000000E-02  5.00000000E-01
                      -4.37500000E-01  6.25000000E-02  5.00000000E-01
                      -3.12500000E-01  6.25000000E-02  5.00000000E-01
                      -1.87500000E-01  6.25000000E-02  5.00000000E-01
                      -6.25000000E-02  6.25000000E-02  5.00000000E-01
                       6.25000000E-02  1.87500000E-01  5.00000000E-01
                       1.87500000E-01  1.87500000E-01  5.00000000E-01
                       3.12500000E-01  1.87500000E-01  5.00000000E-01
                       4.37500000E-01  1.87500000E-01  5.00000000E-01
                      -4.37500000E-01  1.87500000E-01  5.00000000E-01
                      -3.12500000E-01  1.87500000E-01  5.00000000E-01
                      -1.87500000E-01  1.87500000E-01  5.00000000E-01
                      -6.25000000E-02  1.87500000E-01  5.00000000E-01
                       6.25000000E-02  3.12500000E-01  5.00000000E-01
                       1.87500000E-01  3.12500000E-01  5.00000000E-01
                       3.12500000E-01  3.12500000E-01  5.00000000E-01
                       4.37500000E-01  3.12500000E-01  5.00000000E-01
                      -4.37500000E-01  3.12500000E-01  5.00000000E-01
                      -3.12500000E-01  3.12500000E-01  5.00000000E-01
                      -1.87500000E-01  3.12500000E-01  5.00000000E-01
                      -6.25000000E-02  3.12500000E-01  5.00000000E-01
                       6.25000000E-02  4.37500000E-01  5.00000000E-01
                       1.87500000E-01  4.37500000E-01  5.00000000E-01
                       3.12500000E-01  4.37500000E-01  5.00000000E-01
                       4.37500000E-01  4.37500000E-01  5.00000000E-01
                      -4.37500000E-01  4.37500000E-01  5.00000000E-01
                      -3.12500000E-01  4.37500000E-01  5.00000000E-01
                      -1.87500000E-01  4.37500000E-01  5.00000000E-01
                      -6.25000000E-02  4.37500000E-01  5.00000000E-01
              kpt5     6.25000000E-02  6.25000000E-02  5.00000000E-01
                       1.87500000E-01  6.25000000E-02  5.00000000E-01
                       3.12500000E-01  6.25000000E-02  5.00000000E-01
                       4.37500000E-01  6.25000000E-02  5.00000000E-01
                      -4.37500000E-01  6.25000000E-02  5.00000000E-01
                      -3.12500000E-01  6.25000000E-02  5.00000000E-01
                      -1.87500000E-01  6.25000000E-02  5.00000000E-01
                      -6.25000000E-02  6.25000000E-02  5.00000000E-01
                       6.25000000E-02  1.87500000E-01  5.00000000E-01
                       1.87500000E-01  1.87500000E-01  5.00000000E-01
                       3.12500000E-01  1.87500000E-01  5.00000000E-01
                       4.37500000E-01  1.87500000E-01  5.00000000E-01
                      -4.37500000E-01  1.87500000E-01  5.00000000E-01
                      -3.12500000E-01  1.87500000E-01  5.00000000E-01
                      -1.87500000E-01  1.87500000E-01  5.00000000E-01
                      -6.25000000E-02  1.87500000E-01  5.00000000E-01
                       6.25000000E-02  3.12500000E-01  5.00000000E-01
                       1.87500000E-01  3.12500000E-01  5.00000000E-01
                       3.12500000E-01  3.12500000E-01  5.00000000E-01
                       4.37500000E-01  3.12500000E-01  5.00000000E-01
                      -4.37500000E-01  3.12500000E-01  5.00000000E-01
                      -3.12500000E-01  3.12500000E-01  5.00000000E-01
                      -1.87500000E-01  3.12500000E-01  5.00000000E-01
                      -6.25000000E-02  3.12500000E-01  5.00000000E-01
                       6.25000000E-02  4.37500000E-01  5.00000000E-01
                       1.87500000E-01  4.37500000E-01  5.00000000E-01
                       3.12500000E-01  4.37500000E-01  5.00000000E-01
                       4.37500000E-01  4.37500000E-01  5.00000000E-01
                      -4.37500000E-01  4.37500000E-01  5.00000000E-01
                      -3.12500000E-01  4.37500000E-01  5.00000000E-01
                      -1.87500000E-01  4.37500000E-01  5.00000000E-01
                      -6.25000000E-02  4.37500000E-01  5.00000000E-01
              kpt6     6.25000000E-02  6.25000000E-02  5.00000000E-01
                       1.87500000E-01  6.25000000E-02  5.00000000E-01
                       3.12500000E-01  6.25000000E-02  5.00000000E-01
                       4.37500000E-01  6.25000000E-02  5.00000000E-01
                      -4.37500000E-01  6.25000000E-02  5.00000000E-01
                      -3.12500000E-01  6.25000000E-02  5.00000000E-01
                      -1.87500000E-01  6.25000000E-02  5.00000000E-01
                      -6.25000000E-02  6.25000000E-02  5.00000000E-01
                       6.25000000E-02  1.87500000E-01  5.00000000E-01
                       1.87500000E-01  1.87500000E-01  5.00000000E-01
                       3.12500000E-01  1.87500000E-01  5.00000000E-01
                       4.37500000E-01  1.87500000E-01  5.00000000E-01
                      -4.37500000E-01  1.87500000E-01  5.00000000E-01
                      -3.12500000E-01  1.87500000E-01  5.00000000E-01
                      -1.87500000E-01  1.87500000E-01  5.00000000E-01
                      -6.25000000E-02  1.87500000E-01  5.00000000E-01
                       6.25000000E-02  3.12500000E-01  5.00000000E-01
                       1.87500000E-01  3.12500000E-01  5.00000000E-01
                       3.12500000E-01  3.12500000E-01  5.00000000E-01
                       4.37500000E-01  3.12500000E-01  5.00000000E-01
                      -4.37500000E-01  3.12500000E-01  5.00000000E-01
                      -3.12500000E-01  3.12500000E-01  5.00000000E-01
                      -1.87500000E-01  3.12500000E-01  5.00000000E-01
                      -6.25000000E-02  3.12500000E-01  5.00000000E-01
                       6.25000000E-02  4.37500000E-01  5.00000000E-01
                       1.87500000E-01  4.37500000E-01  5.00000000E-01
                       3.12500000E-01  4.37500000E-01  5.00000000E-01
                       4.37500000E-01  4.37500000E-01  5.00000000E-01
                      -4.37500000E-01  4.37500000E-01  5.00000000E-01
                      -3.12500000E-01  4.37500000E-01  5.00000000E-01
                      -1.87500000E-01  4.37500000E-01  5.00000000E-01
                      -6.25000000E-02  4.37500000E-01  5.00000000E-01
           kptopt1          1
           kptopt2          1
           kptopt3          2
           kptopt4          2
           kptopt5          2
           kptopt6          2
         kptrlatt        8    0    0      0    8    0      0    0    1
          kptrlen      6.20994534E+01
P           mkmem1          2
P           mkmem2          2
P           mkmem3          6
P           mkmem4          6
P           mkmem5          6
P           mkmem6          6
P          mkqmem1          2
P          mkqmem2          2
P          mkqmem3          6
P          mkqmem4          6
P          mkqmem5          6
P          mkqmem6          6
P          mk1mem1          2
P          mk1mem2          2
P          mk1mem3          6
P          mk1mem4          6
P          mk1mem5          6
P          mk1mem6          6
            natom          14
            nband1        107
            nband2        220
            nband3        220
            nband4        220
            nband5        220
            nband6        220
           nbdbuf1          0
           nbdbuf2          2
           nbdbuf3          2
           nbdbuf4          2
           nbdbuf5          2
           nbdbuf6          2
           ndtset           6
            ngfft          36      36     216
             nkpt1         10
             nkpt2         10
             nkpt3         32
             nkpt4         32
             nkpt5         32
             nkpt6         32
            nline1          4
            nline2          4
            nline3          4
            nline4          0
            nline5          0
            nline6          0
             nqpt1          0
             nqpt2          0
             nqpt3          0
             nqpt4          1
             nqpt5          1
             nqpt6          1
            nstep1        400
            nstep2        200
            nstep3        200
            nstep4          1
            nstep5          1
            nstep6          1
             nsym           8
           ntypat           2
              occ1     2.000000  2.000000  2.000000  2.000000  2.000000  2.000000
                       2.000000  2.000000  2.000000  2.000000  2.000000  2.000000
                       2.000000  2.000000  2.000000  2.000000  2.000000  2.000000
                       2.000000  2.000000  2.000000  2.000000  2.000000  2.000000
                       2.000000  2.000000  2.000000  2.000000  2.000000  2.000000
                       2.000000  2.000000  2.000000  2.000000  2.000000  2.000000
                       2.000000  2.000000  2.000000  2.000000  2.000000  2.000000
                       2.000000  2.000000  2.000000  2.000000  2.000000  2.000000
                       2.000000  2.000000  2.000000  2.000000  2.000000  2.000000
                       2.000000  2.000000  2.000000  2.000000  2.000000  2.000000
                       2.000000  2.000000  2.000000  2.000000  2.000000  2.000000
                       2.000000  2.000000  2.000000  2.000000  2.000000  2.000000
                       2.000000  2.000000  2.000000  2.000000  2.000000  2.000000
                       2.000000  2.000000  2.000000  2.000000  2.000000  2.000000
                       2.000000  2.000000  2.000000  2.000000  2.000000  2.000000
                       2.000000  2.000000  2.000000  2.000000  2.000000  2.000000
                       2.000000  2.000000  2.000000  2.000000  2.000000  2.000000
                       2.000000  2.000000  2.000000  0.000000  0.000000
              occ4     2.000000  2.000000  2.000000  2.000000  2.000000  2.000000
                       2.000000  2.000000  2.000000  2.000000  2.000000  2.000000
                       2.000000  2.000000  2.000000  2.000000  2.000000  2.000000
                       2.000000  2.000000  2.000000  2.000000  2.000000  2.000000
                       2.000000  2.000000  2.000000  2.000000  2.000000  2.000000
                       2.000000  2.000000  2.000000  2.000000  2.000000  2.000000
                       2.000000  2.000000  2.000000  2.000000  2.000000  2.000000
                       2.000000  2.000000  2.000000  2.000000  2.000000  2.000000
                       2.000000  2.000000  2.000000  2.000000  2.000000  2.000000
                       2.000000  2.000000  2.000000  2.000000  2.000000  2.000000
                       2.000000  2.000000  2.000000  2.000000  2.000000  2.000000
                       2.000000  2.000000  2.000000  2.000000  2.000000  2.000000
                       2.000000  2.000000  2.000000  2.000000  2.000000  2.000000
                       2.000000  2.000000  2.000000  2.000000  2.000000  2.000000
                       2.000000  2.000000  2.000000  2.000000  2.000000  2.000000
                       2.000000  2.000000  2.000000  2.000000  2.000000  2.000000
                       2.000000  2.000000  2.000000  2.000000  2.000000  2.000000
                       2.000000  2.000000  2.000000  0.000000  0.000000  0.000000
                       0.000000  0.000000  0.000000  0.000000  0.000000  0.000000
                       0.000000  0.000000  0.000000  0.000000  0.000000  0.000000
                       0.000000  0.000000  0.000000  0.000000  0.000000  0.000000
                       0.000000  0.000000  0.000000  0.000000  0.000000  0.000000
                       0.000000  0.000000  0.000000  0.000000  0.000000  0.000000
                       0.000000  0.000000  0.000000  0.000000  0.000000  0.000000
                       0.000000  0.000000  0.000000  0.000000  0.000000  0.000000
                       0.000000  0.000000  0.000000  0.000000  0.000000  0.000000
                       0.000000  0.000000  0.000000  0.000000  0.000000  0.000000
                       0.000000  0.000000  0.000000  0.000000  0.000000  0.000000
                       0.000000  0.000000  0.000000  0.000000  0.000000  0.000000
                       0.000000  0.000000  0.000000  0.000000  0.000000  0.000000
                       0.000000  0.000000  0.000000  0.000000  0.000000  0.000000
                       0.000000  0.000000  0.000000  0.000000  0.000000  0.000000
                       0.000000  0.000000  0.000000  0.000000  0.000000  0.000000
                       0.000000  0.000000  0.000000  0.000000  0.000000  0.000000
                       0.000000  0.000000  0.000000  0.000000  0.000000  0.000000
                       0.000000  0.000000  0.000000  0.000000  0.000000  0.000000
                       0.000000  0.000000  0.000000  0.000000
              occ5     2.000000  2.000000  2.000000  2.000000  2.000000  2.000000
                       2.000000  2.000000  2.000000  2.000000  2.000000  2.000000
                       2.000000  2.000000  2.000000  2.000000  2.000000  2.000000
                       2.000000  2.000000  2.000000  2.000000  2.000000  2.000000
                       2.000000  2.000000  2.000000  2.000000  2.000000  2.000000
                       2.000000  2.000000  2.000000  2.000000  2.000000  2.000000
                       2.000000  2.000000  2.000000  2.000000  2.000000  2.000000
                       2.000000  2.000000  2.000000  2.000000  2.000000  2.000000
                       2.000000  2.000000  2.000000  2.000000  2.000000  2.000000
                       2.000000  2.000000  2.000000  2.000000  2.000000  2.000000
                       2.000000  2.000000  2.000000  2.000000  2.000000  2.000000
                       2.000000  2.000000  2.000000  2.000000  2.000000  2.000000
                       2.000000  2.000000  2.000000  2.000000  2.000000  2.000000
                       2.000000  2.000000  2.000000  2.000000  2.000000  2.000000
                       2.000000  2.000000  2.000000  2.000000  2.000000  2.000000
                       2.000000  2.000000  2.000000  2.000000  2.000000  2.000000
                       2.000000  2.000000  2.000000  2.000000  2.000000  2.000000
                       2.000000  2.000000  2.000000  0.000000  0.000000  0.000000
                       0.000000  0.000000  0.000000  0.000000  0.000000  0.000000
                       0.000000  0.000000  0.000000  0.000000  0.000000  0.000000
                       0.000000  0.000000  0.000000  0.000000  0.000000  0.000000
                       0.000000  0.000000  0.000000  0.000000  0.000000  0.000000
                       0.000000  0.000000  0.000000  0.000000  0.000000  0.000000
                       0.000000  0.000000  0.000000  0.000000  0.000000  0.000000
                       0.000000  0.000000  0.000000  0.000000  0.000000  0.000000
                       0.000000  0.000000  0.000000  0.000000  0.000000  0.000000
                       0.000000  0.000000  0.000000  0.000000  0.000000  0.000000
                       0.000000  0.000000  0.000000  0.000000  0.000000  0.000000
                       0.000000  0.000000  0.000000  0.000000  0.000000  0.000000
                       0.000000  0.000000  0.000000  0.000000  0.000000  0.000000
                       0.000000  0.000000  0.000000  0.000000  0.000000  0.000000
                       0.000000  0.000000  0.000000  0.000000  0.000000  0.000000
                       0.000000  0.000000  0.000000  0.000000  0.000000  0.000000
                       0.000000  0.000000  0.000000  0.000000  0.000000  0.000000
                       0.000000  0.000000  0.000000  0.000000  0.000000  0.000000
                       0.000000  0.000000  0.000000  0.000000  0.000000  0.000000
                       0.000000  0.000000  0.000000  0.000000
              occ6     2.000000  2.000000  2.000000  2.000000  2.000000  2.000000
                       2.000000  2.000000  2.000000  2.000000  2.000000  2.000000
                       2.000000  2.000000  2.000000  2.000000  2.000000  2.000000
                       2.000000  2.000000  2.000000  2.000000  2.000000  2.000000
                       2.000000  2.000000  2.000000  2.000000  2.000000  2.000000
                       2.000000  2.000000  2.000000  2.000000  2.000000  2.000000
                       2.000000  2.000000  2.000000  2.000000  2.000000  2.000000
                       2.000000  2.000000  2.000000  2.000000  2.000000  2.000000
                       2.000000  2.000000  2.000000  2.000000  2.000000  2.000000
                       2.000000  2.000000  2.000000  2.000000  2.000000  2.000000
                       2.000000  2.000000  2.000000  2.000000  2.000000  2.000000
                       2.000000  2.000000  2.000000  2.000000  2.000000  2.000000
                       2.000000  2.000000  2.000000  2.000000  2.000000  2.000000
                       2.000000  2.000000  2.000000  2.000000  2.000000  2.000000
                       2.000000  2.000000  2.000000  2.000000  2.000000  2.000000
                       2.000000  2.000000  2.000000  2.000000  2.000000  2.000000
                       2.000000  2.000000  2.000000  2.000000  2.000000  2.000000
                       2.000000  2.000000  2.000000  0.000000  0.000000  0.000000
                       0.000000  0.000000  0.000000  0.000000  0.000000  0.000000
                       0.000000  0.000000  0.000000  0.000000  0.000000  0.000000
                       0.000000  0.000000  0.000000  0.000000  0.000000  0.000000
                       0.000000  0.000000  0.000000  0.000000  0.000000  0.000000
                       0.000000  0.000000  0.000000  0.000000  0.000000  0.000000
                       0.000000  0.000000  0.000000  0.000000  0.000000  0.000000
                       0.000000  0.000000  0.000000  0.000000  0.000000  0.000000
                       0.000000  0.000000  0.000000  0.000000  0.000000  0.000000
                       0.000000  0.000000  0.000000  0.000000  0.000000  0.000000
                       0.000000  0.000000  0.000000  0.000000  0.000000  0.000000
                       0.000000  0.000000  0.000000  0.000000  0.000000  0.000000
                       0.000000  0.000000  0.000000  0.000000  0.000000  0.000000
                       0.000000  0.000000  0.000000  0.000000  0.000000  0.000000
                       0.000000  0.000000  0.000000  0.000000  0.000000  0.000000
                       0.000000  0.000000  0.000000  0.000000  0.000000  0.000000
                       0.000000  0.000000  0.000000  0.000000  0.000000  0.000000
                       0.000000  0.000000  0.000000  0.000000  0.000000  0.000000
                       0.000000  0.000000  0.000000  0.000000  0.000000  0.000000
                       0.000000  0.000000  0.000000  0.000000
        optdriver1          0
        optdriver2          0
        optdriver3          0
        optdriver4          1
        optdriver5          1
        optdriver6          1
            prtwf1          1
            prtwf2          1
            prtwf3          1
            prtwf4          3
            prtwf5          3
            prtwf6          3
            rfdir1          0       0       0
            rfdir2          0       0       0
            rfdir3          0       0       0
            rfdir4          1       0       0
            rfdir5          0       1       0
            rfdir6          0       0       1
           rfelfd1          0
           rfelfd2          0
           rfelfd3          0
           rfelfd4          2
           rfelfd5          2
           rfelfd6          2
            rprim      1.0000000000E+00  0.0000000000E+00  0.0000000000E+00
                       0.0000000000E+00  1.0000000000E+00  0.0000000000E+00
                       0.0000000000E+00  0.0000000000E+00  6.2496953284E+00
           shiftk      5.00000000E-01  5.00000000E-01  5.00000000E-01
          spgroup          99
           symrel      1  0  0   0  1  0   0  0  1       1  0  0   0 -1  0   0  0  1
                      -1  0  0   0 -1  0   0  0  1      -1  0  0   0  1  0   0  0  1
                       0  1  0   1  0  0   0  0  1       0  1  0  -1  0  0   0  0  1
                       0 -1  0  -1  0  0   0  0  1       0 -1  0   1  0  0   0  0  1
            tnons      0.0000000  0.0000000  0.0000000     0.0000000  0.0000000  0.0000000
                      -0.0000000  0.0000000  0.0000000    -0.0000000  0.0000000  0.0000000
                       0.5000000  0.5000000  0.0000000     0.5000000  0.5000000  0.0000000
                       0.5000000  0.5000000  0.0000000     0.5000000  0.5000000  0.0000000
           tolwfr      1.00000000E-20
            typat      1  1  1  1  1  1  1  2  2  2  2  2  2  2
           vdw_xc           5
              wtk1       0.06250    0.12500    0.12500    0.12500    0.06250    0.12500
                         0.12500    0.06250    0.12500    0.06250
              wtk2       0.06250    0.12500    0.12500    0.12500    0.06250    0.12500
                         0.12500    0.06250    0.12500    0.06250
              wtk3       0.03125    0.03125    0.03125    0.03125    0.03125    0.03125
                         0.03125    0.03125    0.03125    0.03125    0.03125    0.03125
                         0.03125    0.03125    0.03125    0.03125    0.03125    0.03125
                         0.03125    0.03125    0.03125    0.03125    0.03125    0.03125
                         0.03125    0.03125    0.03125    0.03125    0.03125    0.03125
                         0.03125    0.03125
              wtk4       0.03125    0.03125    0.03125    0.03125    0.03125    0.03125
                         0.03125    0.03125    0.03125    0.03125    0.03125    0.03125
                         0.03125    0.03125    0.03125    0.03125    0.03125    0.03125
                         0.03125    0.03125    0.03125    0.03125    0.03125    0.03125
                         0.03125    0.03125    0.03125    0.03125    0.03125    0.03125
                         0.03125    0.03125
              wtk5       0.03125    0.03125    0.03125    0.03125    0.03125    0.03125
                         0.03125    0.03125    0.03125    0.03125    0.03125    0.03125
                         0.03125    0.03125    0.03125    0.03125    0.03125    0.03125
                         0.03125    0.03125    0.03125    0.03125    0.03125    0.03125
                         0.03125    0.03125    0.03125    0.03125    0.03125    0.03125
                         0.03125    0.03125
              wtk6       0.03125    0.03125    0.03125    0.03125    0.03125    0.03125
                         0.03125    0.03125    0.03125    0.03125    0.03125    0.03125
                         0.03125    0.03125    0.03125    0.03125    0.03125    0.03125
                         0.03125    0.03125    0.03125    0.03125    0.03125    0.03125
                         0.03125    0.03125    0.03125    0.03125    0.03125    0.03125
                         0.03125    0.03125
           xangst      2.0538509643E+00  0.0000000000E+00  4.6664556527E+00
                       0.0000000000E+00  2.0538509643E+00  7.4160942986E+00
                       2.0538509643E+00  0.0000000000E+00  1.0102195028E+01
                       0.0000000000E+00  2.0538509643E+00  1.2851833674E+01
                       2.0538509643E+00  0.0000000000E+00  1.5537934403E+01
                       0.0000000000E+00  2.0538509643E+00  1.8287547377E+01
                       2.0538509643E+00  0.0000000000E+00  2.0973648106E+01
                       0.0000000000E+00  2.0538509643E+00  4.6982374470E+00
                       2.0538509643E+00  0.0000000000E+00  7.3843381762E+00
                       0.0000000000E+00  2.0538509643E+00  1.0133951150E+01
                       2.0538509643E+00  0.0000000000E+00  1.2820051879E+01
                       0.0000000000E+00  2.0538509643E+00  1.5569690525E+01
                       2.0538509643E+00  0.0000000000E+00  1.8255791255E+01
                       0.0000000000E+00  2.0538509643E+00  2.1005429901E+01
            xcart      3.8812158402E+00  0.0000000000E+00  8.8183231948E+00
                       0.0000000000E+00  3.8812158402E+00  1.4014387200E+01
                       3.8812158402E+00  0.0000000000E+00  1.9090381944E+01
                       0.0000000000E+00  3.8812158402E+00  2.4286445949E+01
                       3.8812158402E+00  0.0000000000E+00  2.9362440692E+01
                       0.0000000000E+00  3.8812158402E+00  3.4558456185E+01
                       3.8812158402E+00  0.0000000000E+00  3.9634450928E+01
                       0.0000000000E+00  3.8812158402E+00  8.8783820821E+00
                       3.8812158402E+00  0.0000000000E+00  1.3954376826E+01
                       0.0000000000E+00  3.8812158402E+00  1.9150392318E+01
                       3.8812158402E+00  0.0000000000E+00  2.4226387062E+01
                       0.0000000000E+00  3.8812158402E+00  2.9422451067E+01
                       3.8812158402E+00  0.0000000000E+00  3.4498445810E+01
                       0.0000000000E+00  3.8812158402E+00  3.9694509816E+01
             xred      5.0000000000E-01  0.0000000000E+00  1.8177300000E-01
                       0.0000000000E+00  5.0000000000E-01  2.8888000000E-01
                       5.0000000000E-01  0.0000000000E+00  3.9351200000E-01
                       0.0000000000E+00  5.0000000000E-01  5.0061900000E-01
                       5.0000000000E-01  0.0000000000E+00  6.0525100000E-01
                       0.0000000000E+00  5.0000000000E-01  7.1235700000E-01
                       5.0000000000E-01  0.0000000000E+00  8.1698900000E-01
                       0.0000000000E+00  5.0000000000E-01  1.8301100000E-01
                       5.0000000000E-01  0.0000000000E+00  2.8764300000E-01
                       0.0000000000E+00  5.0000000000E-01  3.9474900000E-01
                       5.0000000000E-01  0.0000000000E+00  4.9938100000E-01
                       0.0000000000E+00  5.0000000000E-01  6.0648800000E-01
                       5.0000000000E-01  0.0000000000E+00  7.1112000000E-01
                       0.0000000000E+00  5.0000000000E-01  8.1822700000E-01
            znucl       50.00000   34.00000

================================================================================

 chkinp: Checking input parameters for consistency, jdtset=   1.

 chkinp: Checking input parameters for consistency, jdtset=   2.

 chkinp: Checking input parameters for consistency, jdtset=   3.

 chkinp: Checking input parameters for consistency, jdtset=   4.

 chkinp: Checking input parameters for consistency, jdtset=   5.

 chkinp: Checking input parameters for consistency, jdtset=   6.

================================================================================
== DATASET  1 ==================================================================
-   mpi_nproc: 6, omp_nthreads: -1 (-1 if OMP is not activated)


--- !DatasetInfo
iteration_state: {dtset: 1, }
dimensions: {natom: 14, nkpt: 10, mband: 107, nsppol: 1, nspinor: 1, nspden: 1, mpw: 14938, }
cutoff_energies: {ecut:  22.5, pawecutdg:  -1.0, }
electrons: {nelect:   2.10000000E+02, charge:   0.00000000E+00, occopt:   1.00000000E+00, tsmear:   1.00000000E-02, }
meta: {optdriver: 0, ionmov: 0, optcell: 0, iscf: 7, paral_kgb: 0, }
...

 Exchange-correlation functional for the present dataset will be:
  GGA: Perdew-Burke-Ernzerhof functional - ixc=11
 Citation for XC functional:
  J.P.Perdew, K.Burke, M.Ernzerhof, PRL 77, 3865 (1996)

 Real(R)+Recip(G) space primitive vectors, cartesian coordinates (Bohr,Bohr^-1):
 R(1)=  7.7624317  0.0000000  0.0000000  G(1)=  0.1288256  0.0000000  0.0000000
 R(2)=  0.0000000  7.7624317  0.0000000  G(2)=  0.0000000  0.1288256  0.0000000
 R(3)=  0.0000000  0.0000000 48.5128330  G(3)=  0.0000000  0.0000000  0.0206131
 Unit cell volume ucvol=  2.9231575E+03 bohr^3
 Angles (23,13,12)=  9.00000000E+01  9.00000000E+01  9.00000000E+01 degrees

 getcut: wavevector=  0.0000  0.0000  0.0000  ngfft=  36  36 216
         ecut(hartree)=     22.500   => boxcut(ratio)=   2.08517

--- Pseudopotential description ------------------------------------------------
- pspini: atom type   1  psp file is ../../../Psps_for_tests/ATOMICDATA_NC/Sn.psp8
- pspatm: opening atomic psp file    ../../../Psps_for_tests/ATOMICDATA_NC/Sn.psp8
- Sn    ONCVPSP  r_core=  2.27  2.62  1.86
- 50.00000  14.00000    150810                znucl, zion, pspdat
    8   11    2    4       600   0.00000      pspcod,pspxc,lmax,lloc,mmax,r2well
    5.99000000000000    6.50000000000000    0.00000000000000   rchrg,fchrg,qchrg
     nproj     2     2     2
     extension_switch     1
  pspatm : epsatm=   32.65190642
         --- l  ekb(1:nproj) -->
             0    5.462393    0.682281
             1    4.443814    0.825686
             2   -5.382195   -1.704077
 pspatm: atomic psp has been read  and splines computed

- pspini: atom type   2  psp file is ../../../Psps_for_tests/ATOMICDATA_NC/Se.psp8
- pspatm: opening atomic psp file    ../../../Psps_for_tests/ATOMICDATA_NC/Se.psp8
- Se    ONCVPSP  r_core=  1.82  1.50  1.91
- 34.00000  16.00000    150729                znucl, zion, pspdat
    8   11    2    4       600   0.00000      pspcod,pspxc,lmax,lloc,mmax,r2well
    5.99000000000000    5.00000000000000    0.00000000000000   rchrg,fchrg,qchrg
     nproj     2     2     2
     extension_switch     1
  pspatm : epsatm=   29.53325930
         --- l  ekb(1:nproj) -->
             0    8.612261    0.939919
             1    6.984962    1.281898
             2   -9.322521   -3.856218
 pspatm: atomic psp has been read  and splines computed

   9.14121936E+04                                ecore*ucvol(ha*bohr**3)
--------------------------------------------------------------------------------

_setup2: Arith. and geom. avg. npw (full set) are   14902.625   14902.617

================================================================================

--- !BeginCycle
iteration_state: {dtset: 1, }
solver: {iscf: 7, nstep: 400, nline: 4, wfoptalg: 0, }
tolerances: {tolwfr: 1.00E-20, }
...

     iter   Etot(hartree)      deltaE(h)  residm     vres2
 ETOT  1  -1362.8642498256    -1.363E+03 8.875E-01 2.967E+05
 ETOT  2  -1380.1964696865    -1.733E+01 4.855E-02 1.470E+06
 ETOT  3  -1391.9498034632    -1.175E+01 5.982E-02 1.150E+04
 ETOT  4  -1392.4446638287    -4.949E-01 1.026E-02 5.921E+03
 ETOT  5  -1392.5362472461    -9.158E-02 7.091E-03 3.218E+03
 ETOT  6  -1392.5428015383    -6.554E-03 2.439E-03 6.470E+03
 ETOT  7  -1392.5539477671    -1.115E-02 1.250E-03 5.072E+03
 ETOT  8  -1392.5643819067    -1.043E-02 1.572E-03 3.639E+03
 ETOT  9  -1392.5736394112    -9.258E-03 7.227E-04 2.274E+03
 ETOT 10  -1392.5810262635    -7.387E-03 9.559E-04 1.248E+03
 ETOT 11  -1392.5876010420    -6.575E-03 1.213E-03 8.121E+01
 ETOT 12  -1392.5880698520    -4.688E-04 5.253E-04 9.715E+01
 ETOT 13  -1392.5883982078    -3.284E-04 1.034E-03 2.846E+01
 ETOT 14  -1392.5878394995     5.587E-04 2.016E-04 1.188E+02
 ETOT 15  -1392.5882148047    -3.753E-04 4.221E-04 4.913E+01
 ETOT 16  -1392.5883913866    -1.766E-04 6.408E-05 1.970E+01
 ETOT 17  -1392.5884708807    -7.949E-05 1.080E-04 3.299E+00
 ETOT 18  -1392.5884604912     1.039E-05 2.274E-05 6.157E+00
 ETOT 19  -1392.5884839441    -2.345E-05 1.648E-05 4.254E-01
 ETOT 20  -1392.5884839156     2.850E-08 1.847E-05 5.150E-01
 ETOT 21  -1392.5884860639    -2.148E-06 1.859E-05 9.604E-02
 ETOT 22  -1392.5884864877    -4.238E-07 1.444E-05 8.495E-02
 ETOT 23  -1392.5884869196    -4.319E-07 1.866E-05 1.952E-03
 ETOT 24  -1392.5884869368    -1.725E-08 1.070E-05 3.995E-04
 ETOT 25  -1392.5884869383    -1.473E-09 1.871E-05 1.060E-04
 ETOT 26  -1392.5884869390    -7.003E-10 8.322E-06 3.588E-06
 ETOT 27  -1392.5884869392    -1.758E-10 1.822E-05 5.215E-07
 ETOT 28  -1392.5884869392     1.273E-11 7.809E-06 2.344E-07
 ETOT 29  -1392.5884869393    -1.669E-10 1.728E-05 1.474E-08
 ETOT 30  -1392.5884869396    -2.465E-10 7.169E-06 2.379E-08
 ETOT 31  -1392.5884869393     2.990E-10 1.596E-05 9.837E-10
 ETOT 32  -1392.5884869390     2.433E-10 6.439E-06 4.183E-11
 ETOT 33  -1392.5884869393    -2.701E-10 1.439E-05 1.643E-11
 ETOT 34  -1392.5884869389     3.815E-10 5.671E-06 5.220E-12
 ETOT 35  -1392.5884869390    -3.729E-11 1.271E-05 4.773E-12
 ETOT 36  -1392.5884869394    -3.788E-10 4.905E-06 1.825E-14
 ETOT 37  -1392.5884869392     1.530E-10 1.101E-05 2.340E-14
 ETOT 38  -1392.5884869394    -2.274E-10 4.178E-06 8.799E-15
 ETOT 39  -1392.5884869394     3.502E-11 9.389E-06 2.905E-15
 ETOT 40  -1392.5884869392     1.853E-10 3.511E-06 1.342E-15
 ETOT 41  -1392.5884869391     1.357E-10 7.898E-06 7.753E-16
 ETOT 42  -1392.5884869393    -2.040E-10 2.917E-06 7.359E-16
 ETOT 43  -1392.5884869393    -5.321E-11 6.568E-06 5.265E-16
 ETOT 44  -1392.5884869392     1.332E-10 2.401E-06 3.909E-16
 ETOT 45  -1392.5884869392    -1.455E-11 5.410E-06 2.457E-16
 ETOT 46  -1392.5884869392     1.637E-11 1.961E-06 1.811E-16
 ETOT 47  -1392.5884869392    -4.707E-11 4.422E-06 1.424E-16
 ETOT 48  -1392.5884869393    -1.478E-11 1.592E-06 1.181E-16
 ETOT 49  -1392.5884869393     4.547E-13 3.591E-06 1.136E-16
 ETOT 50  -1392.5884869393    -5.389E-11 1.285E-06 5.207E-17
 ETOT 51  -1392.5884869393     3.001E-11 2.901E-06 3.024E-17
 ETOT 52  -1392.5884869393    -1.228E-11 1.033E-06 2.365E-17
 ETOT 53  -1392.5884869393     5.230E-12 2.334E-06 2.460E-17
 ETOT 54  -1392.5884869393    -1.069E-11 8.276E-07 2.169E-17
 ETOT 55  -1392.5884869393     4.775E-12 1.872E-06 1.931E-17
 ETOT 56  -1392.5884869393    -1.069E-11 6.612E-07 1.747E-17
 ETOT 57  -1392.5884869393     4.775E-12 1.496E-06 1.630E-17
 ETOT 58  -1392.5884869393    -6.821E-13 5.272E-07 1.649E-17
 ETOT 59  -1392.5884869393     2.274E-12 1.194E-06 1.564E-17
 ETOT 60  -1392.5884869393    -1.819E-12 4.196E-07 1.330E-17
 ETOT 61  -1392.5884869393    -3.183E-12 9.508E-07 1.254E-17
 ETOT 62  -1392.5884869393    -3.183E-12 3.335E-07 1.189E-17
 ETOT 63  -1392.5884869393    -2.274E-13 7.561E-07 1.142E-17
 ETOT 64  -1392.5884869393    -2.728E-12 2.648E-07 1.093E-17
 ETOT 65  -1392.5884869393     4.093E-12 6.006E-07 1.100E-17
 ETOT 66  -1392.5884869393    -1.819E-12 2.100E-07 9.054E-18
 ETOT 67  -1392.5884869393     2.274E-12 4.767E-07 8.557E-18
 ETOT 68  -1392.5884869393     9.095E-13 1.665E-07 9.042E-18
 ETOT 69  -1392.5884869393     7.958E-12 3.780E-07 7.771E-18
 ETOT 70  -1392.5884869393    -2.046E-12 1.319E-07 8.799E-18
 ETOT 71  -1392.5884869393    -1.364E-12 2.996E-07 8.934E-18
 ETOT 72  -1392.5884869393    -4.775E-12 1.045E-07 7.348E-18
 ETOT 73  -1392.5884869393     1.319E-11 2.374E-07 6.572E-18
 ETOT 74  -1392.5884869393     1.137E-12 8.271E-08 7.115E-18
 ETOT 75  -1392.5884869393     2.046E-12 1.880E-07 5.945E-18
 ETOT 76  -1392.5884869393    -2.046E-12 6.546E-08 5.965E-18
 ETOT 77  -1392.5884869393     2.274E-13 1.488E-07 6.015E-18
 ETOT 78  -1392.5884869393     4.320E-12 5.181E-08 5.171E-18
 ETOT 79  -1392.5884869393    -4.547E-13 1.178E-07 5.372E-18
 ETOT 80  -1392.5884869393    -7.503E-12 4.099E-08 6.297E-18
 ETOT 81  -1392.5884869393    -2.046E-12 9.324E-08 5.894E-18
 ETOT 82  -1392.5884869393    -1.364E-12 3.243E-08 5.653E-18
 ETOT 83  -1392.5884869393     4.547E-12 7.378E-08 4.390E-18
 ETOT 84  -1392.5884869393    -3.638E-12 2.566E-08 4.750E-18
 ETOT 85  -1392.5884869393    -4.547E-13 5.838E-08 4.405E-18
 ETOT 86  -1392.5884869393     1.137E-12 2.030E-08 4.957E-18
 ETOT 87  -1392.5884869393    -2.274E-12 4.619E-08 4.370E-18
 ETOT 88  -1392.5884869393    -6.821E-13 1.606E-08 5.491E-18
 ETOT 89  -1392.5884869393     2.046E-12 3.654E-08 5.618E-18
 ETOT 90  -1392.5884869393     2.501E-12 1.270E-08 3.697E-18
 ETOT 91  -1392.5884869393    -4.547E-13 2.890E-08 4.564E-18
 ETOT 92  -1392.5884869393     3.411E-12 1.005E-08 5.285E-18
 ETOT 93  -1392.5884869393     0.000E+00 2.286E-08 4.418E-18
 ETOT 94  -1392.5884869393     2.956E-12 7.948E-09 3.997E-18
 ETOT 95  -1392.5884869393     9.095E-13 1.809E-08 3.637E-18
 ETOT 96  -1392.5884869393    -2.956E-12 6.287E-09 3.686E-18
 ETOT 97  -1392.5884869393     4.547E-12 1.431E-08 4.867E-18
 ETOT 98  -1392.5884869393    -3.865E-12 4.974E-09 4.402E-18
 ETOT 99  -1392.5884869393     3.638E-12 1.132E-08 3.221E-18
 ETOT  100  -1392.5884869393    -3.411E-12 3.935E-09 3.913E-18
 ETOT  101  -1392.5884869393     1.364E-12 8.952E-09 5.906E-18
 ETOT  102  -1392.5884869393    -5.684E-12 3.113E-09 2.966E-18
 ETOT  103  -1392.5884869393     0.000E+00 7.081E-09 3.702E-18
 ETOT  104  -1392.5884869393     7.276E-12 2.462E-09 3.692E-18
 ETOT  105  -1392.5884869393    -6.821E-13 5.601E-09 3.266E-18
 ETOT  106  -1392.5884869393    -6.821E-13 1.948E-09 3.985E-18
 ETOT  107  -1392.5884869393    -1.137E-12 4.431E-09 2.934E-18
 ETOT  108  -1392.5884869393     6.821E-13 1.541E-09 5.155E-18
 ETOT  109  -1392.5884869393     2.046E-12 3.505E-09 5.285E-18
 ETOT  110  -1392.5884869393     3.638E-12 1.219E-09 3.633E-18
 ETOT  111  -1392.5884869393    -2.728E-12 2.773E-09 4.428E-18
 ETOT  112  -1392.5884869393     4.093E-12 9.646E-10 3.793E-18
 ETOT  113  -1392.5884869393     4.547E-13 2.193E-09 3.671E-18
 ETOT  114  -1392.5884869393    -6.821E-13 7.632E-10 4.022E-18
 ETOT  115  -1392.5884869393    -1.364E-12 1.735E-09 3.564E-18
 ETOT  116  -1392.5884869393    -1.364E-12 6.038E-10 2.936E-18
 ETOT  117  -1392.5884869393     9.095E-13 1.373E-09 3.949E-18
 ETOT  118  -1392.5884869393     6.821E-13 4.778E-10 4.239E-18
 ETOT  119  -1392.5884869393    -1.364E-12 1.086E-09 3.713E-18
 ETOT  120  -1392.5884869393     4.547E-13 3.780E-10 3.352E-18
 ETOT  121  -1392.5884869393     2.274E-13 8.592E-10 4.602E-18
 ETOT  122  -1392.5884869393    -4.547E-13 2.991E-10 3.137E-18
 ETOT  123  -1392.5884869393     5.457E-12 6.797E-10 5.296E-18
 ETOT  124  -1392.5884869393    -1.137E-12 2.367E-10 3.351E-18
 ETOT  125  -1392.5884869393     1.137E-12 5.378E-10 3.809E-18
 ETOT  126  -1392.5884869393    -6.821E-13 1.873E-10 3.661E-18
 ETOT  127  -1392.5884869393    -4.093E-12 4.255E-10 3.965E-18
 ETOT  128  -1392.5884869393    -2.501E-12 1.482E-10 3.018E-18
 ETOT  129  -1392.5884869393     1.819E-12 3.366E-10 4.251E-18
 ETOT  130  -1392.5884869393    -1.592E-12 1.173E-10 3.470E-18
 ETOT  131  -1392.5884869393    -2.274E-13 2.664E-10 4.847E-18
 ETOT  132  -1392.5884869393     9.095E-13 9.280E-11 3.884E-18
 ETOT  133  -1392.5884869393    -6.821E-13 2.107E-10 2.563E-18
 ETOT  134  -1392.5884869393     9.095E-13 7.343E-11 3.592E-18
 ETOT  135  -1392.5884869393     0.000E+00 1.668E-10 4.549E-18
 ETOT  136  -1392.5884869393    -1.137E-12 5.811E-11 3.825E-18
 ETOT  137  -1392.5884869393     0.000E+00 1.319E-10 3.679E-18
 ETOT  138  -1392.5884869393     0.000E+00 4.599E-11 3.447E-18
 ETOT  139  -1392.5884869393     2.728E-12 1.044E-10 3.262E-18
 ETOT  140  -1392.5884869393     0.000E+00 3.639E-11 4.158E-18
 ETOT  141  -1392.5884869393    -9.095E-13 8.261E-11 2.491E-18
 ETOT  142  -1392.5884869393    -9.095E-13 2.880E-11 3.445E-18
 ETOT  143  -1392.5884869393     2.046E-12 6.537E-11 3.533E-18
 ETOT  144  -1392.5884869393    -1.364E-12 2.279E-11 3.550E-18
 ETOT  145  -1392.5884869393     2.274E-13 5.173E-11 3.657E-18
 ETOT  146  -1392.5884869393     6.821E-13 1.804E-11 2.959E-18
 ETOT  147  -1392.5884869393    -2.274E-13 4.093E-11 3.434E-18
 ETOT  148  -1392.5884869393     4.547E-12 1.428E-11 3.721E-18
 ETOT  149  -1392.5884869393    -1.592E-12 3.239E-11 3.110E-18
 ETOT  150  -1392.5884869393     1.137E-12 1.130E-11 3.337E-18
 ETOT  151  -1392.5884869393    -4.547E-13 2.563E-11 2.828E-18
 ETOT  152  -1392.5884869393     2.046E-12 8.942E-12 3.983E-18
 ETOT  153  -1392.5884869393    -3.411E-12 2.028E-11 3.189E-18
 ETOT  154  -1392.5884869393     3.183E-12 7.077E-12 3.287E-18
 ETOT  155  -1392.5884869393    -9.095E-13 1.605E-11 2.929E-18
 ETOT  156  -1392.5884869393    -2.274E-13 5.601E-12 2.476E-18
 ETOT  157  -1392.5884869393     4.547E-12 1.270E-11 2.605E-18
 ETOT  158  -1392.5884869393    -2.728E-12 4.433E-12 3.690E-18
 ETOT  159  -1392.5884869393     0.000E+00 1.005E-11 4.180E-18
 ETOT  160  -1392.5884869393    -6.821E-13 3.508E-12 4.573E-18
 ETOT  161  -1392.5884869393     1.592E-12 7.955E-12 4.497E-18
 ETOT  162  -1392.5884869393    -2.046E-12 2.777E-12 3.340E-18
 ETOT  163  -1392.5884869393     9.095E-13 6.296E-12 3.796E-18
 ETOT  164  -1392.5884869393    -1.137E-12 2.198E-12 2.640E-18
 ETOT  165  -1392.5884869393     1.137E-12 4.982E-12 3.938E-18
 ETOT  166  -1392.5884869393    -4.547E-13 1.740E-12 4.362E-18
 ETOT  167  -1392.5884869393     4.547E-13 3.943E-12 3.986E-18
 ETOT  168  -1392.5884869393     0.000E+00 1.377E-12 3.756E-18
 ETOT  169  -1392.5884869393     0.000E+00 3.121E-12 4.202E-18
 ETOT  170  -1392.5884869393     4.547E-13 1.090E-12 3.175E-18
 ETOT  171  -1392.5884869393    -1.137E-12 2.470E-12 2.526E-18
 ETOT  172  -1392.5884869393     1.137E-12 8.625E-13 3.216E-18
 ETOT  173  -1392.5884869393    -9.095E-13 1.955E-12 3.200E-18
 ETOT  174  -1392.5884869393     1.364E-12 6.827E-13 3.605E-18
 ETOT  175  -1392.5884869393     0.000E+00 1.547E-12 3.376E-18
 ETOT  176  -1392.5884869393     1.819E-12 5.404E-13 4.326E-18
 ETOT  177  -1392.5884869393    -2.274E-12 1.224E-12 2.952E-18
 ETOT  178  -1392.5884869393     3.638E-12 4.277E-13 3.313E-18
 ETOT  179  -1392.5884869393    -1.819E-12 9.690E-13 3.754E-18
 ETOT  180  -1392.5884869393    -6.821E-13 3.385E-13 2.929E-18
 ETOT  181  -1392.5884869393     6.821E-13 7.669E-13 3.291E-18
 ETOT  182  -1392.5884869393    -1.137E-12 2.680E-13 2.864E-18
 ETOT  183  -1392.5884869393     1.137E-12 6.070E-13 3.163E-18
 ETOT  184  -1392.5884869393    -6.821E-13 2.121E-13 3.633E-18
 ETOT  185  -1392.5884869393     6.821E-13 4.804E-13 3.699E-18
 ETOT  186  -1392.5884869393     4.547E-13 1.679E-13 2.859E-18
 ETOT  187  -1392.5884869393     0.000E+00 3.802E-13 3.779E-18
 ETOT  188  -1392.5884869393     1.592E-12 1.329E-13 5.086E-18
 ETOT  189  -1392.5884869393    -2.274E-12 3.010E-13 3.794E-18
 ETOT  190  -1392.5884869393     1.137E-12 1.052E-13 3.919E-18
 ETOT  191  -1392.5884869393    -2.274E-13 2.382E-13 3.352E-18
 ETOT  192  -1392.5884869393     2.046E-12 8.325E-14 3.532E-18
 ETOT  193  -1392.5884869393     0.000E+00 1.885E-13 4.488E-18
 ETOT  194  -1392.5884869393    -1.364E-12 6.590E-14 2.896E-18
 ETOT  195  -1392.5884869393    -2.046E-12 1.492E-13 3.283E-18
 ETOT  196  -1392.5884869393     1.592E-12 5.216E-14 3.716E-18
 ETOT  197  -1392.5884869393     6.821E-13 1.181E-13 3.340E-18
 ETOT  198  -1392.5884869393     4.547E-13 4.129E-14 3.099E-18
 ETOT  199  -1392.5884869393    -2.274E-13 9.348E-14 3.104E-18
 ETOT  200  -1392.5884869393    -6.821E-13 3.268E-14 2.801E-18
 ETOT  201  -1392.5884869393    -2.274E-13 7.399E-14 3.193E-18
 ETOT  202  -1392.5884869393     4.547E-13 2.587E-14 3.784E-18
 ETOT  203  -1392.5884869393    -9.095E-13 5.857E-14 3.036E-18
 ETOT  204  -1392.5884869393     1.592E-12 2.048E-14 3.655E-18
 ETOT  205  -1392.5884869393    -1.137E-12 4.636E-14 2.817E-18
 ETOT  206  -1392.5884869393    -1.364E-12 1.621E-14 2.897E-18
 ETOT  207  -1392.5884869393     2.274E-12 3.669E-14 2.864E-18
 ETOT  208  -1392.5884869393     1.592E-12 1.283E-14 3.436E-18
 ETOT  209  -1392.5884869393    -1.592E-12 2.904E-14 3.592E-18
 ETOT  210  -1392.5884869393    -6.821E-13 1.016E-14 3.444E-18
 ETOT  211  -1392.5884869393    -6.821E-13 2.299E-14 2.689E-18
 ETOT  212  -1392.5884869393    -4.547E-13 8.039E-15 4.230E-18
 ETOT  213  -1392.5884869393     2.501E-12 1.820E-14 3.326E-18
 ETOT  214  -1392.5884869393    -2.501E-12 6.363E-15 3.267E-18
 ETOT  215  -1392.5884869393     2.728E-12 1.440E-14 3.140E-18
 ETOT  216  -1392.5884869393    -1.819E-12 5.037E-15 3.369E-18
 ETOT  217  -1392.5884869393     2.501E-12 1.140E-14 4.118E-18
 ETOT  218  -1392.5884869393    -3.183E-12 3.987E-15 3.506E-18
 ETOT  219  -1392.5884869393     1.592E-12 9.023E-15 3.986E-18
 ETOT  220  -1392.5884869393    -9.095E-13 3.156E-15 3.653E-18
 ETOT  221  -1392.5884869393     3.183E-12 7.142E-15 2.763E-18
 ETOT  222  -1392.5884869393    -3.183E-12 2.498E-15 3.121E-18
 ETOT  223  -1392.5884869393     1.819E-12 5.653E-15 3.621E-18
 ETOT  224  -1392.5884869393    -4.320E-12 1.978E-15 3.510E-18
 ETOT  225  -1392.5884869393    -6.821E-13 4.475E-15 2.898E-18
 ETOT  226  -1392.5884869393     1.819E-12 1.565E-15 2.473E-18
 ETOT  227  -1392.5884869393     0.000E+00 3.542E-15 3.678E-18
 ETOT  228  -1392.5884869393     2.046E-12 1.239E-15 4.796E-18
 ETOT  229  -1392.5884869393     2.046E-12 2.804E-15 3.374E-18
 ETOT  230  -1392.5884869393    -2.956E-12 9.809E-16 3.028E-18
 ETOT  231  -1392.5884869393    -6.821E-13 2.219E-15 4.483E-18
 ETOT  232  -1392.5884869393     2.728E-12 7.764E-16 2.797E-18
 ETOT  233  -1392.5884869393    -4.547E-13 1.757E-15 2.966E-18
 ETOT  234  -1392.5884869393    -1.819E-12 6.146E-16 2.868E-18
 ETOT  235  -1392.5884869393     1.364E-12 1.391E-15 3.241E-18
 ETOT  236  -1392.5884869393    -1.137E-12 4.865E-16 3.708E-18
 ETOT  237  -1392.5884869393     2.501E-12 1.101E-15 3.864E-18
 ETOT  238  -1392.5884869393    -3.183E-12 3.851E-16 3.654E-18
 ETOT  239  -1392.5884869393     9.095E-13 8.712E-16 4.174E-18
 ETOT  240  -1392.5884869393     1.364E-12 3.048E-16 3.315E-18
 ETOT  241  -1392.5884869393    -4.547E-13 6.896E-16 3.234E-18
 ETOT  242  -1392.5884869393     4.547E-13 2.413E-16 3.175E-18
 ETOT  243  -1392.5884869393     4.547E-13 5.459E-16 3.585E-18
 ETOT  244  -1392.5884869393    -1.137E-12 1.910E-16 3.878E-18
 ETOT  245  -1392.5884869393     2.274E-13 4.321E-16 3.198E-18
 ETOT  246  -1392.5884869393    -2.274E-12 1.512E-16 4.131E-18
 ETOT  247  -1392.5884869393     2.956E-12 3.420E-16 3.047E-18
 ETOT  248  -1392.5884869393    -1.592E-12 1.197E-16 2.811E-18
 ETOT  249  -1392.5884869393     1.137E-12 2.707E-16 3.670E-18
 ETOT  250  -1392.5884869393    -2.501E-12 9.474E-17 5.148E-18
 ETOT  251  -1392.5884869393    -1.137E-12 2.143E-16 3.645E-18
 ETOT  252  -1392.5884869393     4.093E-12 7.500E-17 4.182E-18
 ETOT  253  -1392.5884869393    -2.274E-13 1.696E-16 3.331E-18
 ETOT  254  -1392.5884869393    -1.819E-12 5.937E-17 4.049E-18
 ETOT  255  -1392.5884869393     2.046E-12 1.343E-16 3.692E-18
 ETOT  256  -1392.5884869393    -1.137E-12 4.699E-17 2.935E-18
 ETOT  257  -1392.5884869393     2.274E-13 1.063E-16 3.800E-18
 ETOT  258  -1392.5884869393     3.411E-12 3.720E-17 4.306E-18
 ETOT  259  -1392.5884869393    -2.728E-12 8.414E-17 3.598E-18
 ETOT  260  -1392.5884869393    -2.274E-12 2.945E-17 3.927E-18
 ETOT  261  -1392.5884869393     9.095E-13 6.660E-17 2.955E-18
 ETOT  262  -1392.5884869393     1.592E-12 2.331E-17 2.730E-18
 ETOT  263  -1392.5884869393    -4.547E-13 5.272E-17 2.829E-18
 ETOT  264  -1392.5884869393    -6.821E-13 1.845E-17 2.584E-18
 ETOT  265  -1392.5884869393     1.819E-12 4.173E-17 4.652E-18
 ETOT  266  -1392.5884869393    -2.501E-12 1.461E-17 2.860E-18
 ETOT  267  -1392.5884869393     1.137E-12 3.304E-17 3.318E-18
 ETOT  268  -1392.5884869393    -4.547E-13 1.156E-17 4.330E-18
 ETOT  269  -1392.5884869393    -1.364E-12 2.615E-17 3.995E-18
 ETOT  270  -1392.5884869393     2.274E-12 9.152E-18 3.013E-18
 ETOT  271  -1392.5884869393    -4.093E-12 2.070E-17 4.039E-18
 ETOT  272  -1392.5884869393     4.093E-12 7.245E-18 3.759E-18
 ETOT  273  -1392.5884869393    -4.547E-13 1.639E-17 3.249E-18
 ETOT  274  -1392.5884869393    -4.547E-13 5.735E-18 2.939E-18
 ETOT  275  -1392.5884869393     0.000E+00 1.297E-17 2.914E-18
 ETOT  276  -1392.5884869393     0.000E+00 4.540E-18 3.206E-18
 ETOT  277  -1392.5884869393     1.819E-12 1.027E-17 3.138E-18
 ETOT  278  -1392.5884869393    -2.046E-12 3.594E-18 3.886E-18
 ETOT  279  -1392.5884869393     4.547E-13 8.127E-18 3.836E-18
 ETOT  280  -1392.5884869393     1.364E-12 2.845E-18 3.158E-18
 ETOT  281  -1392.5884869393    -2.274E-13 6.433E-18 3.207E-18
 ETOT  282  -1392.5884869393    -3.638E-12 2.252E-18 3.865E-18
 ETOT  283  -1392.5884869393     1.819E-12 5.092E-18 3.279E-18
 ETOT  284  -1392.5884869393     2.728E-12 1.782E-18 4.141E-18
 ETOT  285  -1392.5884869393    -1.137E-12 4.031E-18 3.348E-18
 ETOT  286  -1392.5884869393     9.095E-13 1.411E-18 3.946E-18
 ETOT  287  -1392.5884869393     2.274E-13 3.191E-18 4.051E-18
 ETOT  288  -1392.5884869393    -2.728E-12 1.117E-18 2.958E-18
 ETOT  289  -1392.5884869393     0.000E+00 2.526E-18 3.496E-18
 ETOT  290  -1392.5884869393     6.821E-13 8.841E-19 2.863E-18
 ETOT  291  -1392.5884869393    -1.819E-12 1.999E-18 4.086E-18
 ETOT  292  -1392.5884869393    -1.137E-12 6.999E-19 4.205E-18
 ETOT  293  -1392.5884869393     4.547E-12 1.583E-18 3.785E-18
 ETOT  294  -1392.5884869393    -2.274E-12 5.540E-19 4.229E-18
 ETOT  295  -1392.5884869393    -2.274E-12 1.253E-18 5.051E-18
 ETOT  296  -1392.5884869393     4.093E-12 4.385E-19 2.981E-18
 ETOT  297  -1392.5884869393    -2.274E-12 9.918E-19 3.509E-18
 ETOT  298  -1392.5884869393    -4.547E-13 3.471E-19 3.401E-18
 ETOT  299  -1392.5884869393    -2.046E-12 7.851E-19 3.612E-18
 ETOT  300  -1392.5884869393     4.547E-12 2.748E-19 4.270E-18
 ETOT  301  -1392.5884869393    -4.547E-13 6.215E-19 3.330E-18
 ETOT  302  -1392.5884869393     0.000E+00 2.175E-19 3.016E-18
 ETOT  303  -1392.5884869393     0.000E+00 4.919E-19 3.472E-18
 ETOT  304  -1392.5884869393    -4.547E-13 1.722E-19 3.122E-18
 ETOT  305  -1392.5884869393    -2.274E-13 3.894E-19 3.233E-18
 ETOT  306  -1392.5884869393     4.547E-13 1.363E-19 3.202E-18
 ETOT  307  -1392.5884869393     2.046E-12 3.083E-19 3.582E-18
 ETOT  308  -1392.5884869393    -1.364E-12 1.079E-19 3.319E-18
 ETOT  309  -1392.5884869393     2.274E-13 2.440E-19 3.118E-18
 ETOT  310  -1392.5884869393    -1.364E-12 8.541E-20 3.235E-18
 ETOT  311  -1392.5884869393     2.274E-13 1.932E-19 3.649E-18
 ETOT  312  -1392.5884869393     1.592E-12 6.761E-20 3.272E-18
 ETOT  313  -1392.5884869393    -3.638E-12 1.529E-19 2.766E-18
 ETOT  314  -1392.5884869393     2.046E-12 5.352E-20 4.393E-18
 ETOT  315  -1392.5884869393     4.547E-13 1.210E-19 3.213E-18
 ETOT  316  -1392.5884869393    -4.547E-13 4.236E-20 4.087E-18
 ETOT  317  -1392.5884869393    -1.137E-12 9.581E-20 4.148E-18
 ETOT  318  -1392.5884869393     2.274E-12 3.353E-20 3.879E-18
 ETOT  319  -1392.5884869393     2.274E-13 7.584E-20 3.247E-18
 ETOT  320  -1392.5884869393    -2.274E-13 2.655E-20 3.121E-18
 ETOT  321  -1392.5884869393    -1.137E-12 6.003E-20 3.687E-18
 ETOT  322  -1392.5884869393     9.095E-13 2.101E-20 2.782E-18
 ETOT  323  -1392.5884869393    -1.137E-12 4.752E-20 3.800E-18
 ETOT  324  -1392.5884869393     2.274E-13 1.663E-20 3.263E-18
 ETOT  325  -1392.5884869393     1.592E-12 3.762E-20 3.619E-18
 ETOT  326  -1392.5884869393    -1.819E-12 1.317E-20 3.423E-18
 ETOT  327  -1392.5884869393     4.547E-13 2.978E-20 4.007E-18
 ETOT  328  -1392.5884869393     2.501E-12 1.042E-20 4.107E-18
 ETOT  329  -1392.5884869393    -4.775E-12 9.953E-21 4.075E-18

 At SCF step  329   max residual=  9.95E-21 < tolwfr=  1.00E-20 =>converged.

 Cartesian components of stress tensor (hartree/bohr^3)
  sigma(1 1)=  1.36995139E-02  sigma(3 2)=  0.00000000E+00
  sigma(2 2)=  1.36995139E-02  sigma(3 1)=  0.00000000E+00
  sigma(3 3)=  1.34139542E-02  sigma(2 1)=  0.00000000E+00


--- !ResultsGS
iteration_state: {dtset: 1, }
comment   : Summary of ground state results
lattice_vectors:
- [  7.7624317,   0.0000000,   0.0000000, ]
- [  0.0000000,   7.7624317,   0.0000000, ]
- [  0.0000000,   0.0000000,  48.5128330, ]
lattice_lengths: [   7.76243,    7.76243,   48.51283, ]
lattice_angles: [ 90.000,  90.000,  90.000, ] # degrees, (23, 13, 12)
lattice_volume:   2.9231575E+03
convergence: {deltae: -4.775E-12, res2:  4.075E-18, residm:  9.953E-21, diffor: null, }
etotal    :  -1.39258849E+03
entropy   :   0.00000000E+00
fermie    :   1.53434370E-01
cartesian_stress_tensor: # hartree/bohr^3
- [  1.36995139E-02,   0.00000000E+00,   0.00000000E+00, ]
- [  0.00000000E+00,   1.36995139E-02,   0.00000000E+00, ]
- [  0.00000000E+00,   0.00000000E+00,   1.34139542E-02, ]
pressure_GPa:  -4.0025E+02
xred      :
- [  5.0000E-01,   0.0000E+00,   1.8177E-01, Sn]
- [  0.0000E+00,   5.0000E-01,   2.8888E-01, Sn]
- [  5.0000E-01,   0.0000E+00,   3.9351E-01, Sn]
- [  0.0000E+00,   5.0000E-01,   5.0062E-01, Sn]
- [  5.0000E-01,   0.0000E+00,   6.0525E-01, Sn]
- [  0.0000E+00,   5.0000E-01,   7.1236E-01, Sn]
- [  5.0000E-01,   0.0000E+00,   8.1699E-01, Sn]
- [  0.0000E+00,   5.0000E-01,   1.8301E-01, Se]
- [  5.0000E-01,   0.0000E+00,   2.8764E-01, Se]
- [  0.0000E+00,   5.0000E-01,   3.9475E-01, Se]
- [  5.0000E-01,   0.0000E+00,   4.9938E-01, Se]
- [  0.0000E+00,   5.0000E-01,   6.0649E-01, Se]
- [  5.0000E-01,   0.0000E+00,   7.1112E-01, Se]
- [  0.0000E+00,   5.0000E-01,   8.1823E-01, Se]
cartesian_forces: # hartree/bohr
- [ -0.00000000E+00,  -0.00000000E+00,  -1.31150010E-02, ]
- [ -0.00000000E+00,  -0.00000000E+00,  -1.24713462E-02, ]
- [ -0.00000000E+00,  -0.00000000E+00,   3.78342581E-03, ]
- [ -0.00000000E+00,  -0.00000000E+00,  -1.00136249E-03, ]
- [ -0.00000000E+00,  -0.00000000E+00,  -2.20936367E-03, ]
- [ -0.00000000E+00,  -0.00000000E+00,   1.02696587E-02, ]
- [ -0.00000000E+00,  -0.00000000E+00,   1.40895645E-02, ]
- [ -0.00000000E+00,  -0.00000000E+00,  -1.46157670E-02, ]
- [ -0.00000000E+00,  -0.00000000E+00,  -9.30675457E-03, ]
- [ -0.00000000E+00,  -0.00000000E+00,   1.92104685E-03, ]
- [ -0.00000000E+00,  -0.00000000E+00,   1.48431859E-03, ]
- [ -0.00000000E+00,  -0.00000000E+00,  -4.13359977E-03, ]
- [ -0.00000000E+00,  -0.00000000E+00,   1.27585750E-02, ]
- [ -0.00000000E+00,  -0.00000000E+00,   1.25466052E-02, ]
force_length_stats: {min:   1.00136249E-03, max:   1.46157670E-02, mean:   8.12188495E-03, }
...

 Integrated electronic density in atomic spheres:
 ------------------------------------------------
 Atom  Sphere_radius  Integrated_density
    1        2.00000         10.55710219
    2        2.00000         10.57802537
    3        2.00000         10.55674690
    4        2.00000         10.57118061
    5        2.00000         10.58121232
    6        2.00000         10.57060278
    7        2.00000         10.53451405
    8        2.00000         13.27597188
    9        2.00000         13.31347983
   10        2.00000         13.32962662
   11        2.00000         13.31633613
   12        2.00000         13.30104374
   13        2.00000         13.32166111
   14        2.00000         13.30100729
================================================================================

 ----iterations are completed or convergence reached----

 Mean square residual over all n,k,spin=   28.030E-22; max=  99.530E-22
 reduced coordinates (array xred) for   14 atoms
       0.500000000000      0.000000000000      0.181773000000
       0.000000000000      0.500000000000      0.288880000000
       0.500000000000      0.000000000000      0.393512000000
       0.000000000000      0.500000000000      0.500619000000
       0.500000000000      0.000000000000      0.605251000000
       0.000000000000      0.500000000000      0.712357000000
       0.500000000000      0.000000000000      0.816989000000
       0.000000000000      0.500000000000      0.183011000000
       0.500000000000      0.000000000000      0.287643000000
       0.000000000000      0.500000000000      0.394749000000
       0.500000000000      0.000000000000      0.499381000000
       0.000000000000      0.500000000000      0.606488000000
       0.500000000000      0.000000000000      0.711120000000
       0.000000000000      0.500000000000      0.818227000000
 rms dE/dt=  2.6940E-01; max dE/dt=  7.1006E-01; dE/dt below (all hartree)
    1       0.000000000000      0.000000000000      0.637253631286
    2       0.000000000000      0.000000000000      0.606028111356
    3       0.000000000000      0.000000000000     -0.182536927307
    4       0.000000000000      0.000000000000      0.049586708664
    5       0.000000000000      0.000000000000      0.108190268083
    6       0.000000000000      0.000000000000     -0.497202460588
    7       0.000000000000      0.000000000000     -0.682516912438
    8       0.000000000000      0.000000000000      0.710060038684
    9       0.000000000000      0.000000000000      0.452504807349
   10       0.000000000000      0.000000000000     -0.092187647807
   11       0.000000000000      0.000000000000     -0.071000722655
   12       0.000000000000      0.000000000000      0.201540412404
   13       0.000000000000      0.000000000000     -0.617946840591
   14       0.000000000000      0.000000000000     -0.607663585373

 cartesian coordinates (angstrom) at end:
    1      2.05385096425820     0.00000000000000     4.66645565267078
    2      0.00000000000000     2.05385096425820     7.41609429862266
    3      2.05385096425820     0.00000000000000    10.10219502783023
    4      0.00000000000000     2.05385096425820    12.85183367378211
    5      2.05385096425820     0.00000000000000    15.53793440298969
    6      0.00000000000000     2.05385096425820    18.28754737705601
    7      2.05385096425820     0.00000000000000    20.97364810626359
    8      0.00000000000000     2.05385096425820     4.69823744698571
    9      2.05385096425820     0.00000000000000     7.38433817619329
   10      0.00000000000000     2.05385096425820    10.13395115025961
   11      2.05385096425820     0.00000000000000    12.82005187946719
   12      0.00000000000000     2.05385096425820    15.56969052541906
   13      2.05385096425820     0.00000000000000    18.25579125462664
   14      0.00000000000000     2.05385096425820    21.00542990057851

 cartesian forces (hartree/bohr) at end:
    1     -0.00000000000000    -0.00000000000000    -0.01311500101282
    2     -0.00000000000000    -0.00000000000000    -0.01247134616951
    3     -0.00000000000000    -0.00000000000000     0.00378342580996
    4     -0.00000000000000    -0.00000000000000    -0.00100136249381
    5     -0.00000000000000    -0.00000000000000    -0.00220936367169
    6     -0.00000000000000    -0.00000000000000     0.01026965870454
    7     -0.00000000000000    -0.00000000000000     0.01408956449750
    8     -0.00000000000000    -0.00000000000000    -0.01461576695207
    9     -0.00000000000000    -0.00000000000000    -0.00930675456601
   10     -0.00000000000000    -0.00000000000000     0.00192104684973
   11     -0.00000000000000    -0.00000000000000     0.00148431858964
   12     -0.00000000000000    -0.00000000000000    -0.00413359976610
   13     -0.00000000000000    -0.00000000000000     0.01275857498730
   14     -0.00000000000000    -0.00000000000000     0.01254660519334
 frms,max,avg= 5.5530620E-03 1.4615767E-02   0.000E+00  0.000E+00 -2.077E-05 h/b

 cartesian forces (eV/Angstrom) at end:
    1     -0.00000000000000    -0.00000000000000    -0.67440041084752
    2     -0.00000000000000    -0.00000000000000    -0.64130235082075
    3     -0.00000000000000    -0.00000000000000     0.19455156108294
    4     -0.00000000000000    -0.00000000000000    -0.05149212543504
    5     -0.00000000000000    -0.00000000000000    -0.11361003834001
    6     -0.00000000000000    -0.00000000000000     0.52808703886748
    7     -0.00000000000000    -0.00000000000000     0.72451447594148
    8     -0.00000000000000    -0.00000000000000    -0.75157289181217
    9     -0.00000000000000    -0.00000000000000    -0.47857252140811
   10     -0.00000000000000    -0.00000000000000     0.09878419250225
   11     -0.00000000000000    -0.00000000000000     0.07632672431396
   12     -0.00000000000000    -0.00000000000000    -0.21255822838390
   13     -0.00000000000000    -0.00000000000000     0.65607224923963
   14     -0.00000000000000    -0.00000000000000     0.64517232509975
 frms,max,avg= 2.8554991E-01 7.5157289E-01   0.000E+00  0.000E+00 -1.068E-03 e/A
 length scales=  7.762431680422  7.762431680422  7.762431680422 bohr
              =  4.107701928516  4.107701928516  4.107701928516 angstroms
 prteigrs : about to open file Cs2TiI6o_DS1_EIG
 Fermi (or HOMO) energy (hartree) =   0.15343   Average Vxc (hartree)=  -0.31754
 Eigenvalues (hartree) for nkpt=  10  k points:
 kpt#   1, nband=107, wtk=  0.06250, kpt=  0.0625  0.0625  0.5000 (reduced coord)
  -1.66991   -1.66939   -1.66762   -1.66706   -1.66685   -1.66581   -1.66581   -1.66567
  -1.66528   -1.66523   -1.66358   -1.66343   -1.66292   -1.66272   -1.66248   -1.66235
  -1.66213   -1.66065   -1.66045   -1.66019   -1.65981   -1.65827   -1.65761   -1.65439
  -1.65418   -1.64257   -1.64151   -1.64119   -1.64032   -1.63969   -1.63871   -1.63867
  -1.63781   -1.63718   -1.63674   -0.66307   -0.66301   -0.66156   -0.66143   -0.66140
  -0.66137   -0.66059   -0.66052   -0.66049   -0.66043   -0.65842   -0.65744   -0.65728
  -0.65638   -0.65637   -0.65626   -0.65597   -0.65551   -0.65546   -0.65511   -0.65510
  -0.65419   -0.65404   -0.65396   -0.65395   -0.65371   -0.65359   -0.65311   -0.65304
  -0.65293   -0.65289   -0.65282   -0.65278   -0.65259   -0.65250   -0.41696   -0.40880
  -0.39575   -0.37990   -0.36270   -0.34822   -0.34526   -0.13412   -0.13281   -0.11799
  -0.11019   -0.09028   -0.08075   -0.06022   -0.04664   -0.02983   -0.02871   -0.01995
  -0.00575   -0.00494   -0.00445    0.01122    0.01177    0.02417    0.02973    0.03448
   0.03988    0.04205    0.04348    0.04831    0.06581    0.06712    0.08694    0.09980
   0.12747    0.20102    0.23027
 prteigrs : prtvol=0 or 1, do not print more k-points.


--- !EnergyTerms
iteration_state     : {dtset: 1, }
comment             : Components of total free energy in Hartree
kinetic             :  8.51165286262956E+02
hartree             :  1.62476908180223E+03
xc                  : -3.21111056986568E+02
Ewald energy        :  4.84661859267764E+02
psp_core            :  3.12717303227399E+01
local_psp           : -3.56130728957707E+03
non_local_psp       : -5.01843683081217E+02
VdWaals_dft_d       : -1.94414950106955E-01
total_energy        : -1.39258848693927E+03
total_energy_eV     : -3.78942598771211E+04
band_energy         : -1.67535929509514E+02
...


 Cartesian components of stress tensor (hartree/bohr^3)
  sigma(1 1)=  1.36995139E-02  sigma(3 2)=  0.00000000E+00
  sigma(2 2)=  1.36995139E-02  sigma(3 1)=  0.00000000E+00
  sigma(3 3)=  1.34139542E-02  sigma(2 1)=  0.00000000E+00

-Cartesian components of stress tensor (GPa)         [Pressure= -4.0025E+02 GPa]
- sigma(1 1)=  4.03053547E+02  sigma(3 2)=  0.00000000E+00
- sigma(2 2)=  4.03053547E+02  sigma(3 1)=  0.00000000E+00
- sigma(3 3)=  3.94652090E+02  sigma(2 1)=  0.00000000E+00

================================================================================
== DATASET  2 ==================================================================
-   mpi_nproc: 6, omp_nthreads: -1 (-1 if OMP is not activated)


--- !DatasetInfo
iteration_state: {dtset: 2, }
dimensions: {natom: 14, nkpt: 10, mband: 220, nsppol: 1, nspinor: 1, nspden: 1, mpw: 14938, }
cutoff_energies: {ecut:  22.5, pawecutdg:  -1.0, }
electrons: {nelect:   2.10000000E+02, charge:   0.00000000E+00, occopt:   1.00000000E+00, tsmear:   1.00000000E-02, }
meta: {optdriver: 0, ionmov: 0, optcell: 0, iscf: -2, paral_kgb: 0, }
...

 mkfilename : getwfk/=0, take file _WFK from output of DATASET   1.

 mkfilename : getden/=0, take file _DEN from output of DATASET   1.

 Exchange-correlation functional for the present dataset will be:
  GGA: Perdew-Burke-Ernzerhof functional - ixc=11
 Citation for XC functional:
  J.P.Perdew, K.Burke, M.Ernzerhof, PRL 77, 3865 (1996)

 Real(R)+Recip(G) space primitive vectors, cartesian coordinates (Bohr,Bohr^-1):
 R(1)=  7.7624317  0.0000000  0.0000000  G(1)=  0.1288256  0.0000000  0.0000000
 R(2)=  0.0000000  7.7624317  0.0000000  G(2)=  0.0000000  0.1288256  0.0000000
 R(3)=  0.0000000  0.0000000 48.5128330  G(3)=  0.0000000  0.0000000  0.0206131
 Unit cell volume ucvol=  2.9231575E+03 bohr^3
 Angles (23,13,12)=  9.00000000E+01  9.00000000E+01  9.00000000E+01 degrees

 getcut: wavevector=  0.0000  0.0000  0.0000  ngfft=  36  36 216
         ecut(hartree)=     22.500   => boxcut(ratio)=   2.08517
--------------------------------------------------------------------------------

-inwffil : will read wavefunctions from disk file Cs2TiI6o_DS1_WFK

================================================================================
 prteigrs : about to open file Cs2TiI6o_DS2_EIG
 Non-SCF case, kpt    1 (  0.06250  0.06250  0.50000), residuals and eigenvalues=
  2.65E-21  2.59E-21  3.02E-21  2.33E-21  2.16E-21  3.94E-21  2.33E-21  1.46E-21
  1.63E-21  2.88E-21  3.48E-21  1.41E-21  4.85E-21  2.54E-21  1.10E-21  1.97E-21
  1.88E-21  2.78E-21  3.08E-21  1.65E-21  1.54E-21  2.08E-21  2.15E-21  1.99E-21
  1.94E-21  9.81E-22  2.14E-21  3.17E-22  3.72E-22  2.29E-21  1.89E-21  2.10E-21
  6.74E-22  6.12E-22  8.09E-22  2.05E-21  3.81E-21  2.80E-21  2.41E-21  2.13E-21
  6.49E-22  2.31E-21  2.35E-21  3.98E-21  3.70E-21  3.03E-21  1.29E-21  1.77E-21
  3.33E-21  2.74E-21  1.92E-21  1.82E-21  2.21E-21  5.12E-21  1.07E-21  2.77E-21
  7.42E-21  5.93E-21  2.86E-21  5.54E-21  1.68E-21  1.77E-21  4.53E-21  2.56E-21
  1.03E-21  1.47E-21  1.99E-21  6.65E-21  3.00E-21  2.58E-21  2.70E-22  3.60E-22
  4.07E-22  4.48E-22  4.36E-22  5.31E-22  5.83E-22  4.48E-22  2.63E-22  5.39E-22
  4.98E-22  6.50E-22  8.67E-22  8.78E-22  2.00E-21  3.02E-22  2.74E-21  5.92E-22
  1.21E-21  6.99E-22  1.21E-21  1.06E-21  1.45E-21  1.71E-21  1.39E-21  4.33E-21
  2.63E-21  1.27E-21  1.62E-21  1.45E-21  2.59E-21  2.15E-21  6.16E-21  5.36E-21
  5.74E-21  6.50E-21  3.10E-21  5.86E-21  3.68E-21  7.01E-21  3.23E-21  8.30E-21
  4.35E-21  3.59E-21  9.28E-21  4.11E-21  7.03E-21  9.16E-21  8.79E-21  5.52E-21
  7.30E-21  3.48E-21  3.67E-21  4.34E-21  7.10E-21  4.17E-21  5.79E-21  3.59E-21
  3.23E-21  7.65E-21  1.71E-21  9.84E-21  4.31E-21  4.49E-21  3.59E-21  2.45E-21
  1.60E-21  1.89E-21  6.29E-21  3.93E-21  2.70E-21  4.45E-21  3.51E-21  5.35E-21
  3.67E-21  4.10E-21  6.43E-21  7.92E-21  6.02E-21  4.60E-21  8.38E-21  3.12E-21
  5.41E-21  9.33E-21  3.31E-21  4.35E-21  3.67E-21  4.09E-21  4.86E-21  3.15E-21
  4.69E-21  8.79E-21  4.84E-21  3.09E-21  3.92E-21  4.38E-21  9.35E-21  5.82E-21
  5.59E-21  5.58E-21  8.23E-21  5.91E-21  8.45E-21  3.64E-21  5.73E-21  5.88E-21
  4.17E-21  7.06E-21  4.91E-21  3.54E-21  7.23E-21  3.71E-21  6.33E-21  9.32E-21
  4.01E-21  3.46E-21  6.91E-21  4.95E-21  1.94E-21  6.38E-21  4.97E-21  3.88E-21
  5.38E-21  9.31E-21  7.56E-21  4.70E-21  3.77E-21  7.06E-21  7.46E-21  5.30E-21
  5.64E-21  6.77E-21  5.71E-21  6.81E-21  7.08E-21  4.97E-21  7.77E-21  8.83E-21
  8.49E-21  6.68E-21  6.10E-21  7.89E-21  9.32E-21  7.21E-21  9.25E-21  9.30E-21
  9.65E-21  8.64E-21  7.95E-11  1.08E-11
[...]
                       0.000000  0.000000  0.000000  0.000000  0.000000  0.000000
                       0.000000  0.000000  0.000000  0.000000  0.000000  0.000000
                       0.000000  0.000000  0.000000  0.000000  0.000000  0.000000
                       0.000000  0.000000  0.000000  0.000000  0.000000  0.000000
                       0.000000  0.000000  0.000000  0.000000  0.000000  0.000000
                       0.000000  0.000000  0.000000  0.000000  0.000000  0.000000
                       0.000000  0.000000  0.000000  0.000000  0.000000  0.000000
                       0.000000  0.000000  0.000000  0.000000  0.000000  0.000000
                       0.000000  0.000000  0.000000  0.000000
              occ5     2.000000  2.000000  2.000000  2.000000  2.000000  2.000000
                       2.000000  2.000000  2.000000  2.000000  2.000000  2.000000
                       2.000000  2.000000  2.000000  2.000000  2.000000  2.000000
                       2.000000  2.000000  2.000000  2.000000  2.000000  2.000000
                       2.000000  2.000000  2.000000  2.000000  2.000000  2.000000
                       2.000000  2.000000  2.000000  2.000000  2.000000  2.000000
                       2.000000  2.000000  2.000000  2.000000  2.000000  2.000000
                       2.000000  2.000000  2.000000  2.000000  2.000000  2.000000
                       2.000000  2.000000  2.000000  2.000000  2.000000  2.000000
                       2.000000  2.000000  2.000000  2.000000  2.000000  2.000000
                       2.000000  2.000000  2.000000  2.000000  2.000000  2.000000
                       2.000000  2.000000  2.000000  2.000000  2.000000  2.000000
                       2.000000  2.000000  2.000000  2.000000  2.000000  2.000000
                       2.000000  2.000000  2.000000  2.000000  2.000000  2.000000
                       2.000000  2.000000  2.000000  2.000000  2.000000  2.000000
                       2.000000  2.000000  2.000000  2.000000  2.000000  2.000000
                       2.000000  2.000000  2.000000  2.000000  2.000000  2.000000
                       2.000000  2.000000  2.000000  0.000000  0.000000  0.000000
                       0.000000  0.000000  0.000000  0.000000  0.000000  0.000000
                       0.000000  0.000000  0.000000  0.000000  0.000000  0.000000
                       0.000000  0.000000  0.000000  0.000000  0.000000  0.000000
                       0.000000  0.000000  0.000000  0.000000  0.000000  0.000000
                       0.000000  0.000000  0.000000  0.000000  0.000000  0.000000
                       0.000000  0.000000  0.000000  0.000000  0.000000  0.000000
                       0.000000  0.000000  0.000000  0.000000  0.000000  0.000000
                       0.000000  0.000000  0.000000  0.000000  0.000000  0.000000
                       0.000000  0.000000  0.000000  0.000000  0.000000  0.000000
                       0.000000  0.000000  0.000000  0.000000  0.000000  0.000000
                       0.000000  0.000000  0.000000  0.000000  0.000000  0.000000
                       0.000000  0.000000  0.000000  0.000000  0.000000  0.000000
                       0.000000  0.000000  0.000000  0.000000  0.000000  0.000000
                       0.000000  0.000000  0.000000  0.000000  0.000000  0.000000
                       0.000000  0.000000  0.000000  0.000000  0.000000  0.000000
                       0.000000  0.000000  0.000000  0.000000  0.000000  0.000000
                       0.000000  0.000000  0.000000  0.000000  0.000000  0.000000
                       0.000000  0.000000  0.000000  0.000000  0.000000  0.000000
                       0.000000  0.000000  0.000000  0.000000
              occ6     2.000000  2.000000  2.000000  2.000000  2.000000  2.000000
                       2.000000  2.000000  2.000000  2.000000  2.000000  2.000000
                       2.000000  2.000000  2.000000  2.000000  2.000000  2.000000
                       2.000000  2.000000  2.000000  2.000000  2.000000  2.000000
                       2.000000  2.000000  2.000000  2.000000  2.000000  2.000000
                       2.000000  2.000000  2.000000  2.000000  2.000000  2.000000
                       2.000000  2.000000  2.000000  2.000000  2.000000  2.000000
                       2.000000  2.000000  2.000000  2.000000  2.000000  2.000000
                       2.000000  2.000000  2.000000  2.000000  2.000000  2.000000
                       2.000000  2.000000  2.000000  2.000000  2.000000  2.000000
                       2.000000  2.000000  2.000000  2.000000  2.000000  2.000000
                       2.000000  2.000000  2.000000  2.000000  2.000000  2.000000
                       2.000000  2.000000  2.000000  2.000000  2.000000  2.000000
                       2.000000  2.000000  2.000000  2.000000  2.000000  2.000000
                       2.000000  2.000000  2.000000  2.000000  2.000000  2.000000
                       2.000000  2.000000  2.000000  2.000000  2.000000  2.000000
                       2.000000  2.000000  2.000000  2.000000  2.000000  2.000000
                       2.000000  2.000000  2.000000  0.000000  0.000000  0.000000
                       0.000000  0.000000  0.000000  0.000000  0.000000  0.000000
                       0.000000  0.000000  0.000000  0.000000  0.000000  0.000000
                       0.000000  0.000000  0.000000  0.000000  0.000000  0.000000
                       0.000000  0.000000  0.000000  0.000000  0.000000  0.000000
                       0.000000  0.000000  0.000000  0.000000  0.000000  0.000000
                       0.000000  0.000000  0.000000  0.000000  0.000000  0.000000
                       0.000000  0.000000  0.000000  0.000000  0.000000  0.000000
                       0.000000  0.000000  0.000000  0.000000  0.000000  0.000000
                       0.000000  0.000000  0.000000  0.000000  0.000000  0.000000
                       0.000000  0.000000  0.000000  0.000000  0.000000  0.000000
                       0.000000  0.000000  0.000000  0.000000  0.000000  0.000000
                       0.000000  0.000000  0.000000  0.000000  0.000000  0.000000
                       0.000000  0.000000  0.000000  0.000000  0.000000  0.000000
                       0.000000  0.000000  0.000000  0.000000  0.000000  0.000000
                       0.000000  0.000000  0.000000  0.000000  0.000000  0.000000
                       0.000000  0.000000  0.000000  0.000000  0.000000  0.000000
                       0.000000  0.000000  0.000000  0.000000  0.000000  0.000000
                       0.000000  0.000000  0.000000  0.000000  0.000000  0.000000
                       0.000000  0.000000  0.000000  0.000000
        optdriver1          0
        optdriver2          0
        optdriver3          0
        optdriver4          1
        optdriver5          1
        optdriver6          1
            prtwf1          1
            prtwf2          1
            prtwf3          1
            prtwf4          3
            prtwf5          3
            prtwf6          3
            rfdir1          0       0       0
            rfdir2          0       0       0
            rfdir3          0       0       0
            rfdir4          1       0       0
            rfdir5          0       1       0
            rfdir6          0       0       1
           rfelfd1          0
           rfelfd2          0
           rfelfd3          0
           rfelfd4          2
           rfelfd5          2
           rfelfd6          2
            rprim      1.0000000000E+00  0.0000000000E+00  0.0000000000E+00
                       0.0000000000E+00  1.0000000000E+00  0.0000000000E+00
                       0.0000000000E+00  0.0000000000E+00  6.2496953284E+00
           shiftk      5.00000000E-01  5.00000000E-01  5.00000000E-01
          spgroup          99
           strten1     1.3699513917E-02  1.3699513917E-02  1.3413954151E-02
                       0.0000000000E+00  0.0000000000E+00  0.0000000000E+00
           symrel      1  0  0   0  1  0   0  0  1       1  0  0   0 -1  0   0  0  1
                      -1  0  0   0 -1  0   0  0  1      -1  0  0   0  1  0   0  0  1
                       0  1  0   1  0  0   0  0  1       0  1  0  -1  0  0   0  0  1
                       0 -1  0  -1  0  0   0  0  1       0 -1  0   1  0  0   0  0  1
            tnons      0.0000000  0.0000000  0.0000000     0.0000000  0.0000000  0.0000000
                      -0.0000000  0.0000000  0.0000000    -0.0000000  0.0000000  0.0000000
                       0.5000000  0.5000000  0.0000000     0.5000000  0.5000000  0.0000000
                       0.5000000  0.5000000  0.0000000     0.5000000  0.5000000  0.0000000
           tolwfr      1.00000000E-20
            typat      1  1  1  1  1  1  1  2  2  2  2  2  2  2
           vdw_xc           5
              wtk1       0.06250    0.12500    0.12500    0.12500    0.06250    0.12500
                         0.12500    0.06250    0.12500    0.06250
              wtk2       0.06250    0.12500    0.12500    0.12500    0.06250    0.12500
                         0.12500    0.06250    0.12500    0.06250
              wtk3       0.03125    0.03125    0.03125    0.03125    0.03125    0.03125
                         0.03125    0.03125    0.03125    0.03125    0.03125    0.03125
                         0.03125    0.03125    0.03125    0.03125    0.03125    0.03125
                         0.03125    0.03125    0.03125    0.03125    0.03125    0.03125
                         0.03125    0.03125    0.03125    0.03125    0.03125    0.03125
                         0.03125    0.03125
              wtk4       0.03125    0.03125    0.03125    0.03125    0.03125    0.03125
                         0.03125    0.03125    0.03125    0.03125    0.03125    0.03125
                         0.03125    0.03125    0.03125    0.03125    0.03125    0.03125
                         0.03125    0.03125    0.03125    0.03125    0.03125    0.03125
                         0.03125    0.03125    0.03125    0.03125    0.03125    0.03125
                         0.03125    0.03125
              wtk5       0.03125    0.03125    0.03125    0.03125    0.03125    0.03125
                         0.03125    0.03125    0.03125    0.03125    0.03125    0.03125
                         0.03125    0.03125    0.03125    0.03125    0.03125    0.03125
                         0.03125    0.03125    0.03125    0.03125    0.03125    0.03125
                         0.03125    0.03125    0.03125    0.03125    0.03125    0.03125
                         0.03125    0.03125
              wtk6       0.03125    0.03125    0.03125    0.03125    0.03125    0.03125
                         0.03125    0.03125    0.03125    0.03125    0.03125    0.03125
                         0.03125    0.03125    0.03125    0.03125    0.03125    0.03125
                         0.03125    0.03125    0.03125    0.03125    0.03125    0.03125
                         0.03125    0.03125    0.03125    0.03125    0.03125    0.03125
                         0.03125    0.03125
           xangst      2.0538509643E+00  0.0000000000E+00  4.6664556527E+00
                       0.0000000000E+00  2.0538509643E+00  7.4160942986E+00
                       2.0538509643E+00  0.0000000000E+00  1.0102195028E+01
                       0.0000000000E+00  2.0538509643E+00  1.2851833674E+01
                       2.0538509643E+00  0.0000000000E+00  1.5537934403E+01
                       0.0000000000E+00  2.0538509643E+00  1.8287547377E+01
                       2.0538509643E+00  0.0000000000E+00  2.0973648106E+01
                       0.0000000000E+00  2.0538509643E+00  4.6982374470E+00
                       2.0538509643E+00  0.0000000000E+00  7.3843381762E+00
                       0.0000000000E+00  2.0538509643E+00  1.0133951150E+01
                       2.0538509643E+00  0.0000000000E+00  1.2820051879E+01
                       0.0000000000E+00  2.0538509643E+00  1.5569690525E+01
                       2.0538509643E+00  0.0000000000E+00  1.8255791255E+01
                       0.0000000000E+00  2.0538509643E+00  2.1005429901E+01
            xcart      3.8812158402E+00  0.0000000000E+00  8.8183231948E+00
                       0.0000000000E+00  3.8812158402E+00  1.4014387200E+01
                       3.8812158402E+00  0.0000000000E+00  1.9090381944E+01
                       0.0000000000E+00  3.8812158402E+00  2.4286445949E+01
                       3.8812158402E+00  0.0000000000E+00  2.9362440692E+01
                       0.0000000000E+00  3.8812158402E+00  3.4558456185E+01
                       3.8812158402E+00  0.0000000000E+00  3.9634450928E+01
                       0.0000000000E+00  3.8812158402E+00  8.8783820821E+00
                       3.8812158402E+00  0.0000000000E+00  1.3954376826E+01
                       0.0000000000E+00  3.8812158402E+00  1.9150392318E+01
                       3.8812158402E+00  0.0000000000E+00  2.4226387062E+01
                       0.0000000000E+00  3.8812158402E+00  2.9422451067E+01
                       3.8812158402E+00  0.0000000000E+00  3.4498445810E+01
                       0.0000000000E+00  3.8812158402E+00  3.9694509816E+01
             xred      5.0000000000E-01  0.0000000000E+00  1.8177300000E-01
                       0.0000000000E+00  5.0000000000E-01  2.8888000000E-01
                       5.0000000000E-01  0.0000000000E+00  3.9351200000E-01
                       0.0000000000E+00  5.0000000000E-01  5.0061900000E-01
                       5.0000000000E-01  0.0000000000E+00  6.0525100000E-01
                       0.0000000000E+00  5.0000000000E-01  7.1235700000E-01
                       5.0000000000E-01  0.0000000000E+00  8.1698900000E-01
                       0.0000000000E+00  5.0000000000E-01  1.8301100000E-01
                       5.0000000000E-01  0.0000000000E+00  2.8764300000E-01
                       0.0000000000E+00  5.0000000000E-01  3.9474900000E-01
                       5.0000000000E-01  0.0000000000E+00  4.9938100000E-01
                       0.0000000000E+00  5.0000000000E-01  6.0648800000E-01
                       5.0000000000E-01  0.0000000000E+00  7.1112000000E-01
                       0.0000000000E+00  5.0000000000E-01  8.1822700000E-01
            znucl       50.00000   34.00000

================================================================================


- Timing analysis has been suppressed with timopt=0



================================================================================

 Suggested references for the acknowledgment of ABINIT usage.

 The users of ABINIT have little formal obligations with respect to the ABINIT group
 (those specified in the GNU General Public License, http://www.gnu.org/copyleft/gpl.txt).
 However, it is common practice in the scientific literature,
 to acknowledge the efforts of people that have made the research possible.
 In this spirit, please find below suggested citations of work written by ABINIT developers,
 corresponding to implementations inside of ABINIT that you have used in the present run.
 Note also that it will be of great value to readers of publications presenting these results,
 to read papers enabling them to understand the theoretical formalism and details
 of the ABINIT implementation.
 For information on why they are suggested, see also https://docs.abinit.org/theory/acknowledgments.
-
- [1] The Abinit project: Impact, environment and recent developments.
- Computer Phys. Comm. 248, 107042 (2020).
- X.Gonze, B. Amadon, G. Antonius, F.Arnardi, L.Baguet, J.-M.Beuken,
- J.Bieder, F.Bottin, J.Bouchet, E.Bousquet, N.Brouwer, F.Bruneval,
- G.Brunin, T.Cavignac, J.-B. Charraud, Wei Chen, M.Cote, S.Cottenier,
- J.Denier, G.Geneste, Ph.Ghosez, M.Giantomassi, Y.Gillet, O.Gingras,
- D.R.Hamann, G.Hautier, Xu He, N.Helbig, N.Holzwarth, Y.Jia, F.Jollet,
- W.Lafargue-Dit-Hauret, K.Lejaeghere, M.A.L.Marques, A.Martin, C.Martins,
- H.P.C. Miranda, F.Naccarato, K. Persson, G.Petretto, V.Planes, Y.Pouillon,
- S.Prokhorenko, F.Ricci, G.-M.Rignanese, A.H.Romero, M.M.Schmitt, M.Torrent,
- M.J.van Setten, B.Van Troeye, M.J.Verstraete, G.Zerah and J.W.Zwanzig
- Comment: the fifth generic paper describing the ABINIT project.
- Note that a version of this paper, that is not formatted for Computer Phys. Comm. 
- is available at https://www.abinit.org/sites/default/files/ABINIT20.pdf .
- The licence allows the authors to put it on the Web.
- DOI and bibtex: see https://docs.abinit.org/theory/bibliography/#gonze2020
-
- [2] First-principles responses of solids to atomic displacements and homogeneous electric fields:,
- implementation of a conjugate-gradient algorithm. X. Gonze, Phys. Rev. B55, 10337 (1997).
- Comment: Non-vanishing rfphon and/or rfelfd, in the norm-conserving case.
- DOI and bibtex: see https://docs.abinit.org/theory/bibliography/#gonze1997
-
- [3] Dynamical matrices, Born effective charges, dielectric permittivity tensors, and ,
- interatomic force constants from density-functional perturbation theory,
- X. Gonze and C. Lee, Phys. Rev. B55, 10355 (1997).
- Comment: Non-vanishing rfphon and/or rfelfd, in the norm-conserving case.
- DOI and bibtex: see https://docs.abinit.org/theory/bibliography/#gonze1997a
-
- [4] Optimized norm-conserving Vanderbilt pseudopotentials.
- D.R. Hamann, Phys. Rev. B 88, 085117 (2013).
- Comment: Some pseudopotential generated using the ONCVPSP code were used.
- DOI and bibtex: see https://docs.abinit.org/theory/bibliography/#hamann2013
-
- [5] ABINIT: Overview, and focus on selected capabilities
- J. Chem. Phys. 152, 124102 (2020).
- A. Romero, D.C. Allan, B. Amadon, G. Antonius, T. Applencourt, L.Baguet,
- J.Bieder, F.Bottin, J.Bouchet, E.Bousquet, F.Bruneval,
- G.Brunin, D.Caliste, M.Cote,
- J.Denier, C. Dreyer, Ph.Ghosez, M.Giantomassi, Y.Gillet, O.Gingras,
- D.R.Hamann, G.Hautier, F.Jollet, G. Jomard,
- A.Martin, 
- H.P.C. Miranda, F.Naccarato, G.Petretto, N.A. Pike, V.Planes,
- S.Prokhorenko, T. Rangel, F.Ricci, G.-M.Rignanese, M.Royo, M.Stengel, M.Torrent,
- M.J.van Setten, B.Van Troeye, M.J.Verstraete, J.Wiktor, J.W.Zwanziger, and X.Gonze.
- Comment: a global overview of ABINIT, with focus on selected capabilities .
- Note that a version of this paper, that is not formatted for J. Chem. Phys 
- is available at https://www.abinit.org/sites/default/files/ABINIT20_JPC.pdf .
- The licence allows the authors to put it on the Web.
- DOI and bibtex: see https://docs.abinit.org/theory/bibliography/#romero2020
-
- [6] Recent developments in the ABINIT software package.
- Computer Phys. Comm. 205, 106 (2016).
- X.Gonze, F.Jollet, F.Abreu Araujo, D.Adams, B.Amadon, T.Applencourt,
- C.Audouze, J.-M.Beuken, J.Bieder, A.Bokhanchuk, E.Bousquet, F.Bruneval
- D.Caliste, M.Cote, F.Dahm, F.Da Pieve, M.Delaveau, M.Di Gennaro,
- B.Dorado, C.Espejo, G.Geneste, L.Genovese, A.Gerossier, M.Giantomassi,
- Y.Gillet, D.R.Hamann, L.He, G.Jomard, J.Laflamme Janssen, S.Le Roux,
- A.Levitt, A.Lherbier, F.Liu, I.Lukacevic, A.Martin, C.Martins,
- M.J.T.Oliveira, S.Ponce, Y.Pouillon, T.Rangel, G.-M.Rignanese,
- A.H.Romero, B.Rousseau, O.Rubel, A.A.Shukri, M.Stankovski, M.Torrent,
- M.J.Van Setten, B.Van Troeye, M.J.Verstraete, D.Waroquier, J.Wiktor,
- B.Xu, A.Zhou, J.W.Zwanziger.
- Comment: the fourth generic paper describing the ABINIT project.
- Note that a version of this paper, that is not formatted for Computer Phys. Comm. 
- is available at https://www.abinit.org/sites/default/files/ABINIT16.pdf .
- The licence allows the authors to put it on the Web.
- DOI and bibtex: see https://docs.abinit.org/theory/bibliography/#gonze2016
-
- Proc.   0 individual time (sec): cpu=       7621.0  wall=       7621.4

================================================================================

 Calculation completed.
.Delivered   6 WARNINGs and   0 COMMENTs to log file.
+Overall time at end (sec) : cpu=      45725.8  wall=      45727.8
