  ABINIT 9.2.2
  
 DeprecationWarning: 

     The files file has been deprecated in Abinit9 and will be removed in Abinit10.
     Use the syntax `abinit t01.abi` where t01.abi is an input with pseudopotenials.

            pseudos = "al.psp8, as.psp8"


  Give name for formatted input file: 
Cs2TiI6.in
  Give name for formatted output file:
Cs2TiI6.out
  Give root name for generic input files:
Cs2TiI6i
  Give root name for generic output files:
Cs2TiI6o
  Give root name for generic temporary files:
Cs2TiI6

.Version 9.2.2 of ABINIT 
.(MPI version, prepared for a x86_64_linux_gnu9.3 computer) 

.Copyright (C) 1998-2020 ABINIT group . 
 ABINIT comes with ABSOLUTELY NO WARRANTY.
 It is free software, and you are welcome to redistribute it
 under certain conditions (GNU General Public License,
 see ~abinit/COPYING or http://www.gnu.org/copyleft/gpl.txt).

 ABINIT is a project of the Universite Catholique de Louvain,
 Corning Inc. and other collaborators, see ~abinit/doc/developers/contributors.txt .
 Please read https://docs.abinit.org/theory/acknowledgments for suggested
 acknowledgments of the ABINIT effort.
 For more information, see https://www.abinit.org .

.Starting date : Tue 27 Feb 2024.
- ( at 23h23 )
  
- The starting date is more than 3 years after the initial release
- of this version of ABINIT, namely Nov 2020.
- This version of ABINIT is not supported anymore.
- Action: please, switch to a more recent version of ABINIT.

 ++++++++++++++++++++++++++++++++++++++++++++++++++++++++++++++++++++++++++++++

 === Build Information === 
  Version       : 9.2.2
  Build target  : x86_64_linux_gnu9.3
  Build date    : 20210501

 === Compiler Suite === 
  C compiler       : gnu9.3
  C++ compiler     : generic0.0
  Fortran compiler : gnu9.3
  CFLAGS           : -g -O2 -mtune=native -march=native
  CXXFLAGS         : 
  FCFLAGS          : -g -ffree-line-length-none
  FC_LDFLAGS       : 

 === Optimizations === 
  Debug level        : basic
  Optimization level : standard
  Architecture       : unknown_unknown

 === Multicore === 
  Parallel build : yes
  Parallel I/O   : yes
  openMP support : 
  GPU support    : 

 === Connectors / Fallbacks === 
  LINALG flavor  : netlib
  FFT flavor     : goedecker
  HDF5           : yes
  NetCDF         : yes
  NetCDF Fortran : yes
  LibXC          : yes
  Wannier90      : no

 === Experimental features === 
  Exports             : 
  GW double-precision : 

 ++++++++++++++++++++++++++++++++++++++++++++++++++++++++++++++++++++++++++++++


 ++++++++++++++++++++++++++++++++++++++++++++++++++++++++++++++++++++++++++++++
 Default optimizations:
   -O2 -mtune=native -march=native


 Optimizations for 43_ptgroups:
   -O0


 ++++++++++++++++++++++++++++++++++++++++++++++++++++++++++++++++++++++++++++++


 ++++++++++++++++++++++++++++++++++++++++++++++++++++++++++++++++++++++++++++++
 CPP options activated during the build:

                    CC_GNU                    FC_GNU HAVE_FC_ALLOCATABLE_DT...
 
             HAVE_FC_ASYNC         HAVE_FC_BACKTRACE  HAVE_FC_COMMAND_ARGUMENT
 
      HAVE_FC_COMMAND_LINE        HAVE_FC_CONTIGUOUS           HAVE_FC_CPUTIME
 
              HAVE_FC_EXIT             HAVE_FC_FLUSH             HAVE_FC_GAMMA
 
            HAVE_FC_GETENV   HAVE_FC_IEEE_ARITHMETIC   HAVE_FC_IEEE_EXCEPTIONS
 
          HAVE_FC_INT_QUAD             HAVE_FC_IOMSG     HAVE_FC_ISO_C_BINDING
 
  HAVE_FC_ISO_FORTRAN_2008        HAVE_FC_LONG_LINES        HAVE_FC_MOVE_ALLOC
 
  HAVE_FC_ON_THE_FLY_SHAPE           HAVE_FC_PRIVATE         HAVE_FC_PROTECTED
 
           HAVE_FC_SHIFTLR         HAVE_FC_STREAM_IO            HAVE_FC_SYSTEM
 
          HAVE_FORTRAN2003                 HAVE_HDF5        HAVE_LIBPAW_ABINIT
 
      HAVE_LIBTETRA_ABINIT                HAVE_LIBXC                  HAVE_MPI
 
                 HAVE_MPI2       HAVE_MPI_IALLGATHER       HAVE_MPI_IALLREDUCE
 
        HAVE_MPI_IALLTOALL       HAVE_MPI_IALLTOALLV           HAVE_MPI_IBCAST
 
         HAVE_MPI_IGATHERV        HAVE_MPI_INTEGER16               HAVE_MPI_IO
 
 HAVE_MPI_TYPE_CREATE_S...               HAVE_NETCDF       HAVE_NETCDF_FORTRAN
 
             HAVE_OS_LINUX         HAVE_TIMER_ABINIT                            
 ++++++++++++++++++++++++++++++++++++++++++++++++++++++++++++++++++++++++++++++

- input  file    -> Cs2TiI6.in
- output file    -> Cs2TiI6.out
- root for input  files -> Cs2TiI6i
- root for output files -> Cs2TiI6o

-instrng: 95 lines of input have been read from file Cs2TiI6.in


 Please give name of formatted atomic psp file (and finish with a newline character)
 For atom type 1, psp file is ../../../Psps_for_tests/ATOMICDATA_NC/Sn.psp8

 Please give name of formatted atomic psp file (and finish with a newline character)
 For atom type 2, psp file is ../../../Psps_for_tests/ATOMICDATA_NC/Se.psp8
  read the values zionpsp= 14.0 , pspcod=   8 , lmax=   2
  read the values zionpsp= 16.0 , pspcod=   8 , lmax=   2

 inpspheads: deduce mpsang = 3, n1xccc = 2501.

======================================================= 
 invars1m : enter jdtset= 1

 symlatt: the Bravais lattice is tP (primitive tetragonal)
  xred   is defined in input file
 ingeo: takes atomic coordinates from input array xred

--- !WARNING
src_file: m_ingeo.F90
src_line: 887
message: |
    The tolerance on symmetries =   1.000E-05 is bigger than 1.0e-8.
    In order to avoid spurious effects, the atomic coordinates have been
    symmetrized before storing them in the dataset internal variable.
    So, do not be surprised by the fact that your input variables (xcart, xred, ...)
    do not correspond to the ones echoed by ABINIT, the latter being used to do the calculations.
    In order to avoid this symmetrization (e.g. for specific debugging/development), decrease tolsym to 1.0e-8 or lower.
...


 symlatt: the Bravais lattice is tP (primitive tetragonal)

 symlatt: the Bravais lattice is tP (primitive tetragonal)
 symspgr: spgroup=  99  P4 m m   (=C4v^1)
 symspgr: optical characteristics = uniaxial
 Optical axis (in reduced coordinates, real space ) :   0   0   1

======================================================= 
 invars1m : enter jdtset= 2

 symlatt: the Bravais lattice is tP (primitive tetragonal)
  xred   is defined in input file
 ingeo: takes atomic coordinates from input array xred

--- !WARNING
src_file: m_ingeo.F90
src_line: 887
message: |
    The tolerance on symmetries =   1.000E-05 is bigger than 1.0e-8.
    In order to avoid spurious effects, the atomic coordinates have been
    symmetrized before storing them in the dataset internal variable.
    So, do not be surprised by the fact that your input variables (xcart, xred, ...)
    do not correspond to the ones echoed by ABINIT, the latter being used to do the calculations.
    In order to avoid this symmetrization (e.g. for specific debugging/development), decrease tolsym to 1.0e-8 or lower.
...


 symlatt: the Bravais lattice is tP (primitive tetragonal)

 symlatt: the Bravais lattice is tP (primitive tetragonal)
 symspgr: spgroup=  99  P4 m m   (=C4v^1)
 symspgr: optical characteristics = uniaxial
 Optical axis (in reduced coordinates, real space ) :   0   0   1

======================================================= 
 invars1m : enter jdtset= 3

 symlatt: the Bravais lattice is tP (primitive tetragonal)
  xred   is defined in input file
 ingeo: takes atomic coordinates from input array xred

--- !WARNING
src_file: m_ingeo.F90
src_line: 887
message: |
    The tolerance on symmetries =   1.000E-05 is bigger than 1.0e-8.
    In order to avoid spurious effects, the atomic coordinates have been
    symmetrized before storing them in the dataset internal variable.
    So, do not be surprised by the fact that your input variables (xcart, xred, ...)
    do not correspond to the ones echoed by ABINIT, the latter being used to do the calculations.
    In order to avoid this symmetrization (e.g. for specific debugging/development), decrease tolsym to 1.0e-8 or lower.
...


 symlatt: the Bravais lattice is tP (primitive tetragonal)

 symlatt: the Bravais lattice is tP (primitive tetragonal)
 symspgr: spgroup=  99  P4 m m   (=C4v^1)
 symspgr: optical characteristics = uniaxial
 Optical axis (in reduced coordinates, real space ) :   0   0   1

======================================================= 
 invars1m : enter jdtset= 4

 symlatt: the Bravais lattice is tP (primitive tetragonal)
  xred   is defined in input file
 ingeo: takes atomic coordinates from input array xred

--- !WARNING
src_file: m_ingeo.F90
src_line: 887
message: |
    The tolerance on symmetries =   1.000E-05 is bigger than 1.0e-8.
    In order to avoid spurious effects, the atomic coordinates have been
    symmetrized before storing them in the dataset internal variable.
    So, do not be surprised by the fact that your input variables (xcart, xred, ...)
    do not correspond to the ones echoed by ABINIT, the latter being used to do the calculations.
    In order to avoid this symmetrization (e.g. for specific debugging/development), decrease tolsym to 1.0e-8 or lower.
...


 symlatt: the Bravais lattice is tP (primitive tetragonal)

 symlatt: the Bravais lattice is tP (primitive tetragonal)
 symspgr: spgroup=  99  P4 m m   (=C4v^1)
 symspgr: optical characteristics = uniaxial
 Optical axis (in reduced coordinates, real space ) :   0   0   1

======================================================= 
 invars1m : enter jdtset= 5

 symlatt: the Bravais lattice is tP (primitive tetragonal)
  xred   is defined in input file
 ingeo: takes atomic coordinates from input array xred

--- !WARNING
src_file: m_ingeo.F90
src_line: 887
message: |
    The tolerance on symmetries =   1.000E-05 is bigger than 1.0e-8.
    In order to avoid spurious effects, the atomic coordinates have been
    symmetrized before storing them in the dataset internal variable.
    So, do not be surprised by the fact that your input variables (xcart, xred, ...)
    do not correspond to the ones echoed by ABINIT, the latter being used to do the calculations.
    In order to avoid this symmetrization (e.g. for specific debugging/development), decrease tolsym to 1.0e-8 or lower.
...


 symlatt: the Bravais lattice is tP (primitive tetragonal)

 symlatt: the Bravais lattice is tP (primitive tetragonal)
 symspgr: spgroup=  99  P4 m m   (=C4v^1)
 symspgr: optical characteristics = uniaxial
 Optical axis (in reduced coordinates, real space ) :   0   0   1

======================================================= 
 invars1m : enter jdtset= 6

 symlatt: the Bravais lattice is tP (primitive tetragonal)
  xred   is defined in input file
 ingeo: takes atomic coordinates from input array xred

--- !WARNING
src_file: m_ingeo.F90
src_line: 887
message: |
    The tolerance on symmetries =   1.000E-05 is bigger than 1.0e-8.
    In order to avoid spurious effects, the atomic coordinates have been
    symmetrized before storing them in the dataset internal variable.
    So, do not be surprised by the fact that your input variables (xcart, xred, ...)
    do not correspond to the ones echoed by ABINIT, the latter being used to do the calculations.
    In order to avoid this symmetrization (e.g. for specific debugging/development), decrease tolsym to 1.0e-8 or lower.
...


 symlatt: the Bravais lattice is tP (primitive tetragonal)

 symlatt: the Bravais lattice is tP (primitive tetragonal)
 symspgr: spgroup=  99  P4 m m   (=C4v^1)
 symspgr: optical characteristics = uniaxial
 Optical axis (in reduced coordinates, real space ) :   0   0   1

--- !WARNING
src_file: m_mpinfo.F90
src_line: 2281
message: |
    nkpt*nsppol (10) is not a multiple of nproc_kpt (6)
    The k-point parallelisation is inefficient. (Ignore this warning if this is not a GS run)
...

 For input ecut=  2.250000E+01 best grid ngfft=      36      36     216
       max ecut=  2.445705E+01

 ==== FFT mesh ====
  FFT mesh divisions ........................    36   36  216
  Augmented FFT divisions ...................    37   37  216
  FFT algorithm .............................   112
  FFT cache size ............................    16
 getmpw: optimal value of mpw= 14938

--- !WARNING
src_file: m_mpinfo.F90
src_line: 2281
message: |
    nkpt*nsppol (10) is not a multiple of nproc_kpt (6)
    The k-point parallelisation is inefficient. (Ignore this warning if this is not a GS run)
...

 For input ecut=  2.250000E+01 best grid ngfft=      36      36     216
       max ecut=  2.445705E+01

 ==== FFT mesh ====
  FFT mesh divisions ........................    36   36  216
  Augmented FFT divisions ...................    37   37  216
  FFT algorithm .............................   112
  FFT cache size ............................    16
 getmpw: optimal value of mpw= 14938

--- !WARNING
src_file: m_mpinfo.F90
src_line: 2281
message: |
    nkpt*nsppol (32) is not a multiple of nproc_kpt (6)
    The k-point parallelisation is inefficient. (Ignore this warning if this is not a GS run)
...

 For input ecut=  2.250000E+01 best grid ngfft=      36      36     216
       max ecut=  2.445705E+01

 ==== FFT mesh ====
  FFT mesh divisions ........................    36   36  216
  Augmented FFT divisions ...................    37   37  216
  FFT algorithm .............................   112
  FFT cache size ............................    16
 getmpw: optimal value of mpw= 14938
 For input ecut=  2.250000E+01 best grid ngfft=      36      36     216
       max ecut=  2.445705E+01

 ==== FFT mesh ====
  FFT mesh divisions ........................    36   36  216
  Augmented FFT divisions ...................    37   37  216
  FFT algorithm .............................   112
  FFT cache size ............................    16
 getmpw: optimal value of mpw= 14938
 getmpw: optimal value of mpw= 14938
 For input ecut=  2.250000E+01 best grid ngfft=      36      36     216
       max ecut=  2.445705E+01

 ==== FFT mesh ====
  FFT mesh divisions ........................    36   36  216
  Augmented FFT divisions ...................    37   37  216
  FFT algorithm .............................   112
  FFT cache size ............................    16
 getmpw: optimal value of mpw= 14938
 getmpw: optimal value of mpw= 14938
 For input ecut=  2.250000E+01 best grid ngfft=      36      36     216
       max ecut=  2.445705E+01

 ==== FFT mesh ====
  FFT mesh divisions ........................    36   36  216
  Augmented FFT divisions ...................    37   37  216
  FFT algorithm .............................   112
  FFT cache size ............................    16
 getmpw: optimal value of mpw= 14938
 getmpw: optimal value of mpw= 14938

 DATASET    1 : space group P4 m m (# 99); Bravais tP (primitive tetrag.)

 getdim_nloc : deduce lmnmax  =  18, lnmax  =   6,
                      lmnmaxso=  18, lnmaxso=   6.
memory: analysis of memory needs
================================================================================
 Values of the parameters that define the memory need for DATASET  1.
     intxc =       0    ionmov =       0      iscf =       7    lmnmax =       6
     lnmax =       6     mgfft =     216  mpssoang =       3    mqgrid =   10359
     natom =      14  nloc_mem =       1    nspden =       1   nspinor =       1
    nsppol =       1      nsym =       8    n1xccc =    2501    ntypat =       2
    occopt =       1   xclevel =       2
-    mband =         107        mffmem =           1         mkmem =           2
       mpw =       14938          nfft =      279936          nkpt =          10
================================================================================
P This job should need less than                     142.273 Mbytes of memory.
  Rough estimation (10% accuracy) of disk space for files :
_ WF disk file :    243.893 Mbytes ; DEN or POT disk file :      2.138 Mbytes.
================================================================================

 Biggest array : cg(disk), with     48.7803 MBytes.
 memana : allocated an array of     48.780 Mbytes, for testing purposes.
 memana: allocated     142.273Mbytes, for testing purposes. 
 The job will continue.

 DATASET    2 : space group P4 m m (# 99); Bravais tP (primitive tetrag.)

 getdim_nloc : deduce lmnmax  =  18, lnmax  =   6,
                      lmnmaxso=  18, lnmaxso=   6.
memory: analysis of memory needs
================================================================================
 Values of the parameters that define the memory need for DATASET  2.
     intxc =       0    ionmov =       0      iscf =      -2    lmnmax =       6
     lnmax =       6     mgfft =     216  mpssoang =       3    mqgrid =   10359
     natom =      14  nloc_mem =       1    nspden =       1   nspinor =       1
    nsppol =       1      nsym =       8    n1xccc =    2501    ntypat =       2
    occopt =       1   xclevel =       2
-    mband =         220        mffmem =           1         mkmem =           2
       mpw =       14938          nfft =      279936          nkpt =          10
================================================================================
P This job should need less than                     157.505 Mbytes of memory.
  Rough estimation (10% accuracy) of disk space for files :
_ WF disk file :    501.461 Mbytes ; DEN or POT disk file :      2.138 Mbytes.
================================================================================

 Biggest array : cg(disk), with    100.2937 MBytes.
 memana : allocated an array of    100.294 Mbytes, for testing purposes.
 memana: allocated     157.505Mbytes, for testing purposes. 
 The job will continue.

 DATASET    3 : space group P4 m m (# 99); Bravais tP (primitive tetrag.)

 getdim_nloc : deduce lmnmax  =  18, lnmax  =   6,
                      lmnmaxso=  18, lnmaxso=   6.
memory: analysis of memory needs
================================================================================
 Values of the parameters that define the memory need for DATASET  3.
     intxc =       0    ionmov =       0      iscf =      -2    lmnmax =       6
     lnmax =       6     mgfft =     216  mpssoang =       3    mqgrid =   10359
     natom =      14  nloc_mem =       1    nspden =       1   nspinor =       1
    nsppol =       1      nsym =       8    n1xccc =    2501    ntypat =       2
    occopt =       1   xclevel =       2
-    mband =         220        mffmem =           1         mkmem =           6
       mpw =       14938          nfft =      279936          nkpt =          32
================================================================================
P This job should need less than                     358.883 Mbytes of memory.
  Rough estimation (10% accuracy) of disk space for files :
_ WF disk file :   1604.670 Mbytes ; DEN or POT disk file :      2.138 Mbytes.
================================================================================

 Biggest array : cg(disk), with    300.8772 MBytes.
 memana : allocated an array of    300.877 Mbytes, for testing purposes.
 memana: allocated     358.883Mbytes, for testing purposes. 
 The job will continue.

 DATASET    4 : space group P4 m m (# 99); Bravais tP (primitive tetrag.)

 getdim_nloc : deduce lmnmax  =  18, lnmax  =   6,
                      lmnmaxso=  18, lnmaxso=   6.
 memorf : analysis of memory needs
================================================================================
 Values of the parameters that define the memory need for DATASET  4 (RF).
     intxc =       0      iscf =      -3    lmnmax =       6     lnmax =       6
     mgfft =     216  mpssoang =       3    mqgrid =   10359     natom =      14
  nloc_mem =       1    nspden =       1   nspinor =       1    nsppol =       1
      nsym =       8    n1xccc =    2501    ntypat =       2    occopt =       1
   xclevel =       2
-    mband =         220        mffmem =           1         mkmem =           6
-   mkqmem =           6        mk1mem =           6           mpw =       14938
      nfft =      279936          nkpt =          32
================================================================================
P This job should need less than                     996.805 Mbytes of memory.
  Rough estimation (10% accuracy) of disk space for files :
_ WF disk file :   1604.670 Mbytes ; DEN or POT disk file :      2.138 Mbytes.
================================================================================

 Biggest array : cg(disk), with    300.8772 MBytes.
 memana : allocated an array of    300.877 Mbytes, for testing purposes.
 memana: allocated     996.805Mbytes, for testing purposes. 
 The job will continue.

 DATASET    5 : space group P4 m m (# 99); Bravais tP (primitive tetrag.)

 getdim_nloc : deduce lmnmax  =  18, lnmax  =   6,
                      lmnmaxso=  18, lnmaxso=   6.
 memorf : analysis of memory needs
================================================================================
 Values of the parameters that define the memory need for DATASET  5 (RF).
     intxc =       0      iscf =      -3    lmnmax =       6     lnmax =       6
     mgfft =     216  mpssoang =       3    mqgrid =   10359     natom =      14
  nloc_mem =       1    nspden =       1   nspinor =       1    nsppol =       1
      nsym =       8    n1xccc =    2501    ntypat =       2    occopt =       1
   xclevel =       2
-    mband =         220        mffmem =           1         mkmem =           6
-   mkqmem =           6        mk1mem =           6           mpw =       14938
      nfft =      279936          nkpt =          32
================================================================================
P This job should need less than                     996.805 Mbytes of memory.
  Rough estimation (10% accuracy) of disk space for files :
_ WF disk file :   1604.670 Mbytes ; DEN or POT disk file :      2.138 Mbytes.
================================================================================

 Biggest array : cg(disk), with    300.8772 MBytes.
 memana : allocated an array of    300.877 Mbytes, for testing purposes.
 memana: allocated     996.805Mbytes, for testing purposes. 
 The job will continue.

 DATASET    6 : space group P4 m m (# 99); Bravais tP (primitive tetrag.)

 getdim_nloc : deduce lmnmax  =  18, lnmax  =   6,
                      lmnmaxso=  18, lnmaxso=   6.
 memorf : analysis of memory needs
================================================================================
 Values of the parameters that define the memory need for DATASET  6 (RF).
     intxc =       0      iscf =      -3    lmnmax =       6     lnmax =       6
     mgfft =     216  mpssoang =       3    mqgrid =   10359     natom =      14
  nloc_mem =       1    nspden =       1   nspinor =       1    nsppol =       1
      nsym =       8    n1xccc =    2501    ntypat =       2    occopt =       1
   xclevel =       2
-    mband =         220        mffmem =           1         mkmem =           6
-   mkqmem =           6        mk1mem =           6           mpw =       14938
      nfft =      279936          nkpt =          32
================================================================================
P This job should need less than                     996.805 Mbytes of memory.
  Rough estimation (10% accuracy) of disk space for files :
_ WF disk file :   1604.670 Mbytes ; DEN or POT disk file :      2.138 Mbytes.
================================================================================

 Biggest array : cg(disk), with    300.8772 MBytes.
 memana : allocated an array of    300.877 Mbytes, for testing purposes.
 memana: allocated     996.805Mbytes, for testing purposes. 
 The job will continue.
--------------------------------------------------------------------------------
------------- Echo of variables that govern the present computation ------------
--------------------------------------------------------------------------------
-
- outvars: echo of selected default values                                      
-   iomode0 =  0 , fftalg0 =112 , wfoptalg0 =  0
-
- outvars: echo of global parameters not present in the input file              
-  max_nthreads =    0
-
 -outvars: echo values of preprocessed input variables --------
 
 These variables are accessible in NetCDF format (Cs2TiI6o_OUT.nc)

            acell      7.7624316804E+00  7.7624316804E+00  7.7624316804E+00 Bohr
              amu      1.18710000E+02  7.89600000E+01
           diemac      1.20000000E+01
             ecut      2.25000000E+01 Hartree
-          fftalg         112
           getden1          0
           getden2          1
           getden3          1
           getden4          0
           getden5          0
           getden6          0
           getwfk1          0
           getwfk2          1
           getwfk3          2
           getwfk4          3
           getwfk5          3
           getwfk6          3
             iscf1          7
             iscf2         -2
             iscf3         -2
             iscf4         -3
             iscf5         -3
             iscf6         -3
              ixc          11
           jdtset        1    2    3    4    5    6
              kpt1     6.25000000E-02  6.25000000E-02  5.00000000E-01
                       1.87500000E-01  6.25000000E-02  5.00000000E-01
                       3.12500000E-01  6.25000000E-02  5.00000000E-01
                       4.37500000E-01  6.25000000E-02  5.00000000E-01
                       1.87500000E-01  1.87500000E-01  5.00000000E-01
                       3.12500000E-01  1.87500000E-01  5.00000000E-01
                       4.37500000E-01  1.87500000E-01  5.00000000E-01
                       3.12500000E-01  3.12500000E-01  5.00000000E-01
                       4.37500000E-01  3.12500000E-01  5.00000000E-01
                       4.37500000E-01  4.37500000E-01  5.00000000E-01
              kpt2     6.25000000E-02  6.25000000E-02  5.00000000E-01
                       1.87500000E-01  6.25000000E-02  5.00000000E-01
                       3.12500000E-01  6.25000000E-02  5.00000000E-01
                       4.37500000E-01  6.25000000E-02  5.00000000E-01
                       1.87500000E-01  1.87500000E-01  5.00000000E-01
                       3.12500000E-01  1.87500000E-01  5.00000000E-01
                       4.37500000E-01  1.87500000E-01  5.00000000E-01
                       3.12500000E-01  3.12500000E-01  5.00000000E-01
                       4.37500000E-01  3.12500000E-01  5.00000000E-01
                       4.37500000E-01  4.37500000E-01  5.00000000E-01
              kpt3     6.25000000E-02  6.25000000E-02  5.00000000E-01
                       1.87500000E-01  6.25000000E-02  5.00000000E-01
                       3.12500000E-01  6.25000000E-02  5.00000000E-01
                       4.37500000E-01  6.25000000E-02  5.00000000E-01
                      -4.37500000E-01  6.25000000E-02  5.00000000E-01
                      -3.12500000E-01  6.25000000E-02  5.00000000E-01
                      -1.87500000E-01  6.25000000E-02  5.00000000E-01
                      -6.25000000E-02  6.25000000E-02  5.00000000E-01
                       6.25000000E-02  1.87500000E-01  5.00000000E-01
                       1.87500000E-01  1.87500000E-01  5.00000000E-01
                       3.12500000E-01  1.87500000E-01  5.00000000E-01
                       4.37500000E-01  1.87500000E-01  5.00000000E-01
                      -4.37500000E-01  1.87500000E-01  5.00000000E-01
                      -3.12500000E-01  1.87500000E-01  5.00000000E-01
                      -1.87500000E-01  1.87500000E-01  5.00000000E-01
                      -6.25000000E-02  1.87500000E-01  5.00000000E-01
                       6.25000000E-02  3.12500000E-01  5.00000000E-01
                       1.87500000E-01  3.12500000E-01  5.00000000E-01
                       3.12500000E-01  3.12500000E-01  5.00000000E-01
                       4.37500000E-01  3.12500000E-01  5.00000000E-01
                      -4.37500000E-01  3.12500000E-01  5.00000000E-01
                      -3.12500000E-01  3.12500000E-01  5.00000000E-01
                      -1.87500000E-01  3.12500000E-01  5.00000000E-01
                      -6.25000000E-02  3.12500000E-01  5.00000000E-01
                       6.25000000E-02  4.37500000E-01  5.00000000E-01
                       1.87500000E-01  4.37500000E-01  5.00000000E-01
                       3.12500000E-01  4.37500000E-01  5.00000000E-01
                       4.37500000E-01  4.37500000E-01  5.00000000E-01
                      -4.37500000E-01  4.37500000E-01  5.00000000E-01
                      -3.12500000E-01  4.37500000E-01  5.00000000E-01
                      -1.87500000E-01  4.37500000E-01  5.00000000E-01
                      -6.25000000E-02  4.37500000E-01  5.00000000E-01
              kpt4     6.25000000E-02  6.25000000E-02  5.00000000E-01
                       1.87500000E-01  6.25000000E-02  5.00000000E-01
                       3.12500000E-01  6.25000000E-02  5.00000000E-01
                       4.37500000E-01  6.25000000E-02  5.00000000E-01
                      -4.37500000E-01  6.25000000E-02  5.00000000E-01
                      -3.12500000E-01  6.25000000E-02  5.00000000E-01
                      -1.87500000E-01  6.25000000E-02  5.00000000E-01
                      -6.25000000E-02  6.25000000E-02  5.00000000E-01
                       6.25000000E-02  1.87500000E-01  5.00000000E-01
                       1.87500000E-01  1.87500000E-01  5.00000000E-01
                       3.12500000E-01  1.87500000E-01  5.00000000E-01
                       4.37500000E-01  1.87500000E-01  5.00000000E-01
                      -4.37500000E-01  1.87500000E-01  5.00000000E-01
                      -3.12500000E-01  1.87500000E-01  5.00000000E-01
                      -1.87500000E-01  1.87500000E-01  5.00000000E-01
                      -6.25000000E-02  1.87500000E-01  5.00000000E-01
                       6.25000000E-02  3.12500000E-01  5.00000000E-01
                       1.87500000E-01  3.12500000E-01  5.00000000E-01
                       3.12500000E-01  3.12500000E-01  5.00000000E-01
                       4.37500000E-01  3.12500000E-01  5.00000000E-01
                      -4.37500000E-01  3.12500000E-01  5.00000000E-01
                      -3.12500000E-01  3.12500000E-01  5.00000000E-01
                      -1.87500000E-01  3.12500000E-01  5.00000000E-01
                      -6.25000000E-02  3.12500000E-01  5.00000000E-01
                       6.25000000E-02  4.37500000E-01  5.00000000E-01
                       1.87500000E-01  4.37500000E-01  5.00000000E-01
                       3.12500000E-01  4.37500000E-01  5.00000000E-01
                       4.37500000E-01  4.37500000E-01  5.00000000E-01
                      -4.37500000E-01  4.37500000E-01  5.00000000E-01
                      -3.12500000E-01  4.37500000E-01  5.00000000E-01
                      -1.87500000E-01  4.37500000E-01  5.00000000E-01
                      -6.25000000E-02  4.37500000E-01  5.00000000E-01
              kpt5     6.25000000E-02  6.25000000E-02  5.00000000E-01
                       1.87500000E-01  6.25000000E-02  5.00000000E-01
                       3.12500000E-01  6.25000000E-02  5.00000000E-01
                       4.37500000E-01  6.25000000E-02  5.00000000E-01
                      -4.37500000E-01  6.25000000E-02  5.00000000E-01
                      -3.12500000E-01  6.25000000E-02  5.00000000E-01
                      -1.87500000E-01  6.25000000E-02  5.00000000E-01
                      -6.25000000E-02  6.25000000E-02  5.00000000E-01
                       6.25000000E-02  1.87500000E-01  5.00000000E-01
                       1.87500000E-01  1.87500000E-01  5.00000000E-01
                       3.12500000E-01  1.87500000E-01  5.00000000E-01
                       4.37500000E-01  1.87500000E-01  5.00000000E-01
                      -4.37500000E-01  1.87500000E-01  5.00000000E-01
                      -3.12500000E-01  1.87500000E-01  5.00000000E-01
                      -1.87500000E-01  1.87500000E-01  5.00000000E-01
                      -6.25000000E-02  1.87500000E-01  5.00000000E-01
                       6.25000000E-02  3.12500000E-01  5.00000000E-01
                       1.87500000E-01  3.12500000E-01  5.00000000E-01
                       3.12500000E-01  3.12500000E-01  5.00000000E-01
                       4.37500000E-01  3.12500000E-01  5.00000000E-01
                      -4.37500000E-01  3.12500000E-01  5.00000000E-01
                      -3.12500000E-01  3.12500000E-01  5.00000000E-01
                      -1.87500000E-01  3.12500000E-01  5.00000000E-01
                      -6.25000000E-02  3.12500000E-01  5.00000000E-01
                       6.25000000E-02  4.37500000E-01  5.00000000E-01
                       1.87500000E-01  4.37500000E-01  5.00000000E-01
                       3.12500000E-01  4.37500000E-01  5.00000000E-01
                       4.37500000E-01  4.37500000E-01  5.00000000E-01
                      -4.37500000E-01  4.37500000E-01  5.00000000E-01
                      -3.12500000E-01  4.37500000E-01  5.00000000E-01
                      -1.87500000E-01  4.37500000E-01  5.00000000E-01
                      -6.25000000E-02  4.37500000E-01  5.00000000E-01
              kpt6     6.25000000E-02  6.25000000E-02  5.00000000E-01
                       1.87500000E-01  6.25000000E-02  5.00000000E-01
                       3.12500000E-01  6.25000000E-02  5.00000000E-01
                       4.37500000E-01  6.25000000E-02  5.00000000E-01
                      -4.37500000E-01  6.25000000E-02  5.00000000E-01
                      -3.12500000E-01  6.25000000E-02  5.00000000E-01
                      -1.87500000E-01  6.25000000E-02  5.00000000E-01
                      -6.25000000E-02  6.25000000E-02  5.00000000E-01
                       6.25000000E-02  1.87500000E-01  5.00000000E-01
                       1.87500000E-01  1.87500000E-01  5.00000000E-01
                       3.12500000E-01  1.87500000E-01  5.00000000E-01
                       4.37500000E-01  1.87500000E-01  5.00000000E-01
                      -4.37500000E-01  1.87500000E-01  5.00000000E-01
                      -3.12500000E-01  1.87500000E-01  5.00000000E-01
                      -1.87500000E-01  1.87500000E-01  5.00000000E-01
                      -6.25000000E-02  1.87500000E-01  5.00000000E-01
                       6.25000000E-02  3.12500000E-01  5.00000000E-01
                       1.87500000E-01  3.12500000E-01  5.00000000E-01
                       3.12500000E-01  3.12500000E-01  5.00000000E-01
                       4.37500000E-01  3.12500000E-01  5.00000000E-01
                      -4.37500000E-01  3.12500000E-01  5.00000000E-01
                      -3.12500000E-01  3.12500000E-01  5.00000000E-01
                      -1.87500000E-01  3.12500000E-01  5.00000000E-01
                      -6.25000000E-02  3.12500000E-01  5.00000000E-01
                       6.25000000E-02  4.37500000E-01  5.00000000E-01
                       1.87500000E-01  4.37500000E-01  5.00000000E-01
                       3.12500000E-01  4.37500000E-01  5.00000000E-01
                       4.37500000E-01  4.37500000E-01  5.00000000E-01
                      -4.37500000E-01  4.37500000E-01  5.00000000E-01
                      -3.12500000E-01  4.37500000E-01  5.00000000E-01
                      -1.87500000E-01  4.37500000E-01  5.00000000E-01
                      -6.25000000E-02  4.37500000E-01  5.00000000E-01
           kptopt1          1
           kptopt2          1
           kptopt3          2
           kptopt4          2
           kptopt5          2
           kptopt6          2
         kptrlatt        8    0    0      0    8    0      0    0    1
          kptrlen      6.20994534E+01
P           mkmem1          2
P           mkmem2          2
P           mkmem3          6
P           mkmem4          6
P           mkmem5          6
P           mkmem6          6
P          mkqmem1          2
P          mkqmem2          2
P          mkqmem3          6
P          mkqmem4          6
P          mkqmem5          6
P          mkqmem6          6
P          mk1mem1          2
P          mk1mem2          2
P          mk1mem3          6
P          mk1mem4          6
P          mk1mem5          6
P          mk1mem6          6
            natom          14
            nband1        107
            nband2        220
            nband3        220
            nband4        220
            nband5        220
            nband6        220
           nbdbuf1          0
           nbdbuf2          2
           nbdbuf3          2
           nbdbuf4          2
           nbdbuf5          2
           nbdbuf6          2
           ndtset           6
            ngfft          36      36     216
             nkpt1         10
             nkpt2         10
             nkpt3         32
             nkpt4         32
             nkpt5         32
             nkpt6         32
            nline1          4
            nline2          4
            nline3          4
            nline4          0
            nline5          0
            nline6          0
             nqpt1          0
             nqpt2          0
             nqpt3          0
             nqpt4          1
             nqpt5          1
             nqpt6          1
            nstep1        400
            nstep2        200
            nstep3        200
            nstep4          1
            nstep5          1
            nstep6          1
             nsym           8
           ntypat           2
              occ1     2.000000  2.000000  2.000000  2.000000  2.000000  2.000000
                       2.000000  2.000000  2.000000  2.000000  2.000000  2.000000
                       2.000000  2.000000  2.000000  2.000000  2.000000  2.000000
                       2.000000  2.000000  2.000000  2.000000  2.000000  2.000000
                       2.000000  2.000000  2.000000  2.000000  2.000000  2.000000
                       2.000000  2.000000  2.000000  2.000000  2.000000  2.000000
                       2.000000  2.000000  2.000000  2.000000  2.000000  2.000000
                       2.000000  2.000000  2.000000  2.000000  2.000000  2.000000
                       2.000000  2.000000  2.000000  2.000000  2.000000  2.000000
                       2.000000  2.000000  2.000000  2.000000  2.000000  2.000000
                       2.000000  2.000000  2.000000  2.000000  2.000000  2.000000
                       2.000000  2.000000  2.000000  2.000000  2.000000  2.000000
                       2.000000  2.000000  2.000000  2.000000  2.000000  2.000000
                       2.000000  2.000000  2.000000  2.000000  2.000000  2.000000
                       2.000000  2.000000  2.000000  2.000000  2.000000  2.000000
                       2.000000  2.000000  2.000000  2.000000  2.000000  2.000000
                       2.000000  2.000000  2.000000  2.000000  2.000000  2.000000
                       2.000000  2.000000  2.000000  0.000000  0.000000
              occ4     2.000000  2.000000  2.000000  2.000000  2.000000  2.000000
                       2.000000  2.000000  2.000000  2.000000  2.000000  2.000000
                       2.000000  2.000000  2.000000  2.000000  2.000000  2.000000
                       2.000000  2.000000  2.000000  2.000000  2.000000  2.000000
                       2.000000  2.000000  2.000000  2.000000  2.000000  2.000000
                       2.000000  2.000000  2.000000  2.000000  2.000000  2.000000
                       2.000000  2.000000  2.000000  2.000000  2.000000  2.000000
                       2.000000  2.000000  2.000000  2.000000  2.000000  2.000000
                       2.000000  2.000000  2.000000  2.000000  2.000000  2.000000
                       2.000000  2.000000  2.000000  2.000000  2.000000  2.000000
                       2.000000  2.000000  2.000000  2.000000  2.000000  2.000000
                       2.000000  2.000000  2.000000  2.000000  2.000000  2.000000
                       2.000000  2.000000  2.000000  2.000000  2.000000  2.000000
                       2.000000  2.000000  2.000000  2.000000  2.000000  2.000000
                       2.000000  2.000000  2.000000  2.000000  2.000000  2.000000
                       2.000000  2.000000  2.000000  2.000000  2.000000  2.000000
                       2.000000  2.000000  2.000000  2.000000  2.000000  2.000000
                       2.000000  2.000000  2.000000  0.000000  0.000000  0.000000
                       0.000000  0.000000  0.000000  0.000000  0.000000  0.000000
                       0.000000  0.000000  0.000000  0.000000  0.000000  0.000000
                       0.000000  0.000000  0.000000  0.000000  0.000000  0.000000
                       0.000000  0.000000  0.000000  0.000000  0.000000  0.000000
                       0.000000  0.000000  0.000000  0.000000  0.000000  0.000000
                       0.000000  0.000000  0.000000  0.000000  0.000000  0.000000
                       0.000000  0.000000  0.000000  0.000000  0.000000  0.000000
                       0.000000  0.000000  0.000000  0.000000  0.000000  0.000000
                       0.000000  0.000000  0.000000  0.000000  0.000000  0.000000
                       0.000000  0.000000  0.000000  0.000000  0.000000  0.000000
                       0.000000  0.000000  0.000000  0.000000  0.000000  0.000000
                       0.000000  0.000000  0.000000  0.000000  0.000000  0.000000
                       0.000000  0.000000  0.000000  0.000000  0.000000  0.000000
                       0.000000  0.000000  0.000000  0.000000  0.000000  0.000000
                       0.000000  0.000000  0.000000  0.000000  0.000000  0.000000
                       0.000000  0.000000  0.000000  0.000000  0.000000  0.000000
                       0.000000  0.000000  0.000000  0.000000  0.000000  0.000000
                       0.000000  0.000000  0.000000  0.000000  0.000000  0.000000
                       0.000000  0.000000  0.000000  0.000000
              occ5     2.000000  2.000000  2.000000  2.000000  2.000000  2.000000
                       2.000000  2.000000  2.000000  2.000000  2.000000  2.000000
                       2.000000  2.000000  2.000000  2.000000  2.000000  2.000000
                       2.000000  2.000000  2.000000  2.000000  2.000000  2.000000
                       2.000000  2.000000  2.000000  2.000000  2.000000  2.000000
                       2.000000  2.000000  2.000000  2.000000  2.000000  2.000000
                       2.000000  2.000000  2.000000  2.000000  2.000000  2.000000
                       2.000000  2.000000  2.000000  2.000000  2.000000  2.000000
                       2.000000  2.000000  2.000000  2.000000  2.000000  2.000000
                       2.000000  2.000000  2.000000  2.000000  2.000000  2.000000
                       2.000000  2.000000  2.000000  2.000000  2.000000  2.000000
                       2.000000  2.000000  2.000000  2.000000  2.000000  2.000000
                       2.000000  2.000000  2.000000  2.000000  2.000000  2.000000
                       2.000000  2.000000  2.000000  2.000000  2.000000  2.000000
                       2.000000  2.000000  2.000000  2.000000  2.000000  2.000000
                       2.000000  2.000000  2.000000  2.000000  2.000000  2.000000
                       2.000000  2.000000  2.000000  2.000000  2.000000  2.000000
                       2.000000  2.000000  2.000000  0.000000  0.000000  0.000000
                       0.000000  0.000000  0.000000  0.000000  0.000000  0.000000
                       0.000000  0.000000  0.000000  0.000000  0.000000  0.000000
                       0.000000  0.000000  0.000000  0.000000  0.000000  0.000000
                       0.000000  0.000000  0.000000  0.000000  0.000000  0.000000
                       0.000000  0.000000  0.000000  0.000000  0.000000  0.000000
                       0.000000  0.000000  0.000000  0.000000  0.000000  0.000000
                       0.000000  0.000000  0.000000  0.000000  0.000000  0.000000
                       0.000000  0.000000  0.000000  0.000000  0.000000  0.000000
                       0.000000  0.000000  0.000000  0.000000  0.000000  0.000000
                       0.000000  0.000000  0.000000  0.000000  0.000000  0.000000
                       0.000000  0.000000  0.000000  0.000000  0.000000  0.000000
                       0.000000  0.000000  0.000000  0.000000  0.000000  0.000000
                       0.000000  0.000000  0.000000  0.000000  0.000000  0.000000
                       0.000000  0.000000  0.000000  0.000000  0.000000  0.000000
                       0.000000  0.000000  0.000000  0.000000  0.000000  0.000000
                       0.000000  0.000000  0.000000  0.000000  0.000000  0.000000
                       0.000000  0.000000  0.000000  0.000000  0.000000  0.000000
                       0.000000  0.000000  0.000000  0.000000  0.000000  0.000000
                       0.000000  0.000000  0.000000  0.000000
              occ6     2.000000  2.000000  2.000000  2.000000  2.000000  2.000000
                       2.000000  2.000000  2.000000  2.000000  2.000000  2.000000
                       2.000000  2.000000  2.000000  2.000000  2.000000  2.000000
                       2.000000  2.000000  2.000000  2.000000  2.000000  2.000000
                       2.000000  2.000000  2.000000  2.000000  2.000000  2.000000
                       2.000000  2.000000  2.000000  2.000000  2.000000  2.000000
                       2.000000  2.000000  2.000000  2.000000  2.000000  2.000000
                       2.000000  2.000000  2.000000  2.000000  2.000000  2.000000
                       2.000000  2.000000  2.000000  2.000000  2.000000  2.000000
                       2.000000  2.000000  2.000000  2.000000  2.000000  2.000000
                       2.000000  2.000000  2.000000  2.000000  2.000000  2.000000
                       2.000000  2.000000  2.000000  2.000000  2.000000  2.000000
                       2.000000  2.000000  2.000000  2.000000  2.000000  2.000000
                       2.000000  2.000000  2.000000  2.000000  2.000000  2.000000
                       2.000000  2.000000  2.000000  2.000000  2.000000  2.000000
                       2.000000  2.000000  2.000000  2.000000  2.000000  2.000000
                       2.000000  2.000000  2.000000  2.000000  2.000000  2.000000
                       2.000000  2.000000  2.000000  0.000000  0.000000  0.000000
                       0.000000  0.000000  0.000000  0.000000  0.000000  0.000000
                       0.000000  0.000000  0.000000  0.000000  0.000000  0.000000
                       0.000000  0.000000  0.000000  0.000000  0.000000  0.000000
                       0.000000  0.000000  0.000000  0.000000  0.000000  0.000000
                       0.000000  0.000000  0.000000  0.000000  0.000000  0.000000
                       0.000000  0.000000  0.000000  0.000000  0.000000  0.000000
                       0.000000  0.000000  0.000000  0.000000  0.000000  0.000000
                       0.000000  0.000000  0.000000  0.000000  0.000000  0.000000
                       0.000000  0.000000  0.000000  0.000000  0.000000  0.000000
                       0.000000  0.000000  0.000000  0.000000  0.000000  0.000000
                       0.000000  0.000000  0.000000  0.000000  0.000000  0.000000
                       0.000000  0.000000  0.000000  0.000000  0.000000  0.000000
                       0.000000  0.000000  0.000000  0.000000  0.000000  0.000000
                       0.000000  0.000000  0.000000  0.000000  0.000000  0.000000
                       0.000000  0.000000  0.000000  0.000000  0.000000  0.000000
                       0.000000  0.000000  0.000000  0.000000  0.000000  0.000000
                       0.000000  0.000000  0.000000  0.000000  0.000000  0.000000
                       0.000000  0.000000  0.000000  0.000000  0.000000  0.000000
                       0.000000  0.000000  0.000000  0.000000
        optdriver1          0
        optdriver2          0
        optdriver3          0
        optdriver4          1
        optdriver5          1
        optdriver6          1
            prtwf1          1
            prtwf2          1
            prtwf3          1
            prtwf4          3
            prtwf5          3
            prtwf6          3
            rfdir1          0       0       0
            rfdir2          0       0       0
            rfdir3          0       0       0
            rfdir4          1       0       0
            rfdir5          0       1       0
            rfdir6          0       0       1
           rfelfd1          0
           rfelfd2          0
           rfelfd3          0
           rfelfd4          2
           rfelfd5          2
           rfelfd6          2
            rprim      1.0000000000E+00  0.0000000000E+00  0.0000000000E+00
                       0.0000000000E+00  1.0000000000E+00  0.0000000000E+00
                       0.0000000000E+00  0.0000000000E+00  6.2496953284E+00
           shiftk      5.00000000E-01  5.00000000E-01  5.00000000E-01
          spgroup          99
           symrel      1  0  0   0  1  0   0  0  1       1  0  0   0 -1  0   0  0  1
                      -1  0  0   0 -1  0   0  0  1      -1  0  0   0  1  0   0  0  1
                       0  1  0   1  0  0   0  0  1       0  1  0  -1  0  0   0  0  1
                       0 -1  0  -1  0  0   0  0  1       0 -1  0   1  0  0   0  0  1
            tnons      0.0000000  0.0000000  0.0000000     0.0000000  0.0000000  0.0000000
                      -0.0000000  0.0000000  0.0000000    -0.0000000  0.0000000  0.0000000
                       0.5000000  0.5000000  0.0000000     0.5000000  0.5000000  0.0000000
                       0.5000000  0.5000000  0.0000000     0.5000000  0.5000000  0.0000000
           tolwfr      1.00000000E-20
            typat      1  1  1  1  1  1  1  2  2  2  2  2  2  2
           vdw_xc           5
              wtk1       0.06250    0.12500    0.12500    0.12500    0.06250    0.12500
                         0.12500    0.06250    0.12500    0.06250
              wtk2       0.06250    0.12500    0.12500    0.12500    0.06250    0.12500
                         0.12500    0.06250    0.12500    0.06250
              wtk3       0.03125    0.03125    0.03125    0.03125    0.03125    0.03125
                         0.03125    0.03125    0.03125    0.03125    0.03125    0.03125
                         0.03125    0.03125    0.03125    0.03125    0.03125    0.03125
                         0.03125    0.03125    0.03125    0.03125    0.03125    0.03125
                         0.03125    0.03125    0.03125    0.03125    0.03125    0.03125
                         0.03125    0.03125
              wtk4       0.03125    0.03125    0.03125    0.03125    0.03125    0.03125
                         0.03125    0.03125    0.03125    0.03125    0.03125    0.03125
                         0.03125    0.03125    0.03125    0.03125    0.03125    0.03125
                         0.03125    0.03125    0.03125    0.03125    0.03125    0.03125
                         0.03125    0.03125    0.03125    0.03125    0.03125    0.03125
                         0.03125    0.03125
              wtk5       0.03125    0.03125    0.03125    0.03125    0.03125    0.03125
                         0.03125    0.03125    0.03125    0.03125    0.03125    0.03125
                         0.03125    0.03125    0.03125    0.03125    0.03125    0.03125
                         0.03125    0.03125    0.03125    0.03125    0.03125    0.03125
                         0.03125    0.03125    0.03125    0.03125    0.03125    0.03125
                         0.03125    0.03125
              wtk6       0.03125    0.03125    0.03125    0.03125    0.03125    0.03125
                         0.03125    0.03125    0.03125    0.03125    0.03125    0.03125
                         0.03125    0.03125    0.03125    0.03125    0.03125    0.03125
                         0.03125    0.03125    0.03125    0.03125    0.03125    0.03125
                         0.03125    0.03125    0.03125    0.03125    0.03125    0.03125
                         0.03125    0.03125
           xangst      2.0538509643E+00  0.0000000000E+00  4.6664556527E+00
                       0.0000000000E+00  2.0538509643E+00  7.4160942986E+00
                       2.0538509643E+00  0.0000000000E+00  1.0102195028E+01
                       0.0000000000E+00  2.0538509643E+00  1.2851833674E+01
                       2.0538509643E+00  0.0000000000E+00  1.5537934403E+01
                       0.0000000000E+00  2.0538509643E+00  1.8287547377E+01
                       2.0538509643E+00  0.0000000000E+00  2.0973648106E+01
                       0.0000000000E+00  2.0538509643E+00  4.6982374470E+00
                       2.0538509643E+00  0.0000000000E+00  7.3843381762E+00
                       0.0000000000E+00  2.0538509643E+00  1.0133951150E+01
                       2.0538509643E+00  0.0000000000E+00  1.2820051879E+01
                       0.0000000000E+00  2.0538509643E+00  1.5569690525E+01
                       2.0538509643E+00  0.0000000000E+00  1.8255791255E+01
                       0.0000000000E+00  2.0538509643E+00  2.1005429901E+01
            xcart      3.8812158402E+00  0.0000000000E+00  8.8183231948E+00
                       0.0000000000E+00  3.8812158402E+00  1.4014387200E+01
                       3.8812158402E+00  0.0000000000E+00  1.9090381944E+01
                       0.0000000000E+00  3.8812158402E+00  2.4286445949E+01
                       3.8812158402E+00  0.0000000000E+00  2.9362440692E+01
                       0.0000000000E+00  3.8812158402E+00  3.4558456185E+01
                       3.8812158402E+00  0.0000000000E+00  3.9634450928E+01
                       0.0000000000E+00  3.8812158402E+00  8.8783820821E+00
                       3.8812158402E+00  0.0000000000E+00  1.3954376826E+01
                       0.0000000000E+00  3.8812158402E+00  1.9150392318E+01
                       3.8812158402E+00  0.0000000000E+00  2.4226387062E+01
                       0.0000000000E+00  3.8812158402E+00  2.9422451067E+01
                       3.8812158402E+00  0.0000000000E+00  3.4498445810E+01
                       0.0000000000E+00  3.8812158402E+00  3.9694509816E+01
             xred      5.0000000000E-01  0.0000000000E+00  1.8177300000E-01
                       0.0000000000E+00  5.0000000000E-01  2.8888000000E-01
                       5.0000000000E-01  0.0000000000E+00  3.9351200000E-01
                       0.0000000000E+00  5.0000000000E-01  5.0061900000E-01
                       5.0000000000E-01  0.0000000000E+00  6.0525100000E-01
                       0.0000000000E+00  5.0000000000E-01  7.1235700000E-01
                       5.0000000000E-01  0.0000000000E+00  8.1698900000E-01
                       0.0000000000E+00  5.0000000000E-01  1.8301100000E-01
                       5.0000000000E-01  0.0000000000E+00  2.8764300000E-01
                       0.0000000000E+00  5.0000000000E-01  3.9474900000E-01
                       5.0000000000E-01  0.0000000000E+00  4.9938100000E-01
                       0.0000000000E+00  5.0000000000E-01  6.0648800000E-01
                       5.0000000000E-01  0.0000000000E+00  7.1112000000E-01
                       0.0000000000E+00  5.0000000000E-01  8.1822700000E-01
            znucl       50.00000   34.00000

================================================================================

 chkinp: Checking input parameters for consistency, jdtset=   1.

 chkinp: Checking input parameters for consistency, jdtset=   2.

 chkinp: Checking input parameters for consistency, jdtset=   3.

 chkinp: Checking input parameters for consistency, jdtset=   4.

 chkinp: Checking input parameters for consistency, jdtset=   5.

 chkinp: Checking input parameters for consistency, jdtset=   6.
 DATA TYPE INFORMATION: 
 REAL:      Data type name: REAL(DP) 
            Kind value:      8
            Precision:      15
            Smallest nonnegligible quantity relative to 1: 0.22204460E-015
            Smallest positive number:                      0.22250739E-307
            Largest representable number:                  0.17976931E+309
 INTEGER:   Data type name: INTEGER(default) 
            Kind value: 4
            Bit size:   32
            Largest representable number: 2147483647
 LOGICAL:   Data type name: LOGICAL 
            Kind value: 4
 CHARACTER: Data type name: CHARACTER             Kind value: 1

  ==== OpenMP parallelism is OFF ====
 
  ==== Using MPI-2 specifications ==== 
  MPI-IO support is ON
  xmpi_tag_ub ................   2147483647
  xmpi_bsize_ch ..............            1
  xmpi_bsize_int .............            4
  xmpi_bsize_sp ..............            4
  xmpi_bsize_dp ..............            8
  xmpi_bsize_spc .............            8
  xmpi_bsize_dpc .............           16
  xmpio_bsize_frm ............            4
  xmpi_address_kind ..........            8
  xmpi_offset_kind ...........            8
  MPI_WTICK ..................    1.0000000000000001E-009

================================================================================
== DATASET  1 ==================================================================
-   mpi_nproc: 6, omp_nthreads: -1 (-1 if OMP is not activated)


--- !COMMENT
src_file: m_xgScalapack.F90
src_line: 236
message: |
    xgScalapack in auto mode
...


 getdim_nloc : deduce lmnmax  =  18, lnmax  =   6,
                      lmnmaxso=  18, lnmaxso=   6.
 Exchange-correlation functional for the present dataset will be:
  GGA: Perdew-Burke-Ernzerhof functional - ixc=11
 Citation for XC functional:
  J.P.Perdew, K.Burke, M.Ernzerhof, PRL 77, 3865 (1996)

 Unit cell volume ucvol=  2.9231575E+03 bohr^3
 Angles (23,13,12)=  9.00000000E+01  9.00000000E+01  9.00000000E+01 degrees

 getcut: wavevector=  0.0000  0.0000  0.0000  ngfft=  36  36 216
         ecut(hartree)=     22.500   => boxcut(ratio)=   2.08517
- pspini: atom type   1  psp file is ../../../Psps_for_tests/ATOMICDATA_NC/Sn.psp8
- pspatm: opening atomic psp file    ../../../Psps_for_tests/ATOMICDATA_NC/Sn.psp8
- Sn    ONCVPSP  r_core=  2.27  2.62  1.86
- 50.00000  14.00000    150810                znucl, zion, pspdat
    8   11    2    4       600   0.00000      pspcod,pspxc,lmax,lloc,mmax,r2well
    5.99000000000000    6.50000000000000    0.00000000000000   rchrg,fchrg,qchrg
     nproj     2     2     2
     extension_switch     1
  valence charge integrates to:    13.912521222389802     
  pspatm : epsatm=   32.65190642
         --- l  ekb(1:nproj) -->
             0    5.462393    0.682281
             1    4.443814    0.825686
             2   -5.382195   -1.704077
 pspatm: atomic psp has been read  and splines computed

- pspini: atom type   2  psp file is ../../../Psps_for_tests/ATOMICDATA_NC/Se.psp8
- pspatm: opening atomic psp file    ../../../Psps_for_tests/ATOMICDATA_NC/Se.psp8
- Se    ONCVPSP  r_core=  1.82  1.50  1.91
- 34.00000  16.00000    150729                znucl, zion, pspdat
    8   11    2    4       600   0.00000      pspcod,pspxc,lmax,lloc,mmax,r2well
    5.99000000000000    5.00000000000000    0.00000000000000   rchrg,fchrg,qchrg
     nproj     2     2     2
     extension_switch     1
  valence charge integrates to:    15.981819523532332     
  pspatm : epsatm=   29.53325930
         --- l  ekb(1:nproj) -->
             0    8.612261    0.939919
             1    6.984962    1.281898
             2   -9.322521   -3.856218
 pspatm: atomic psp has been read  and splines computed

   9.14121936E+04                                ecore*ucvol(ha*bohr**3)
 ==== Info on pseudopotentials ====
  Norm-conserving pseudopotentials
  Number of pseudopotentials ..    2
  Number of types of atoms   ..    2
  Scalar calculation (no spin-orbit term)
  Nonlocal part applied using Legendre polynomials
  Max number of non-local projectors over l and type   2
  Highest angular momentum +1 .......   3
  Max number of (l,n)   components ..   6
  Max number of (l,m,n) components ..   6

 Pseudo-Core Charge Info: 
   Number of radial points for pseudo-core charge .. 2501
   XC core-correction treatment (optnlxccc) ........    1
   Radius for pseudo-core charge for each type ..... 

  - Atom type    1 has pseudo-core radius ..  5.9900
  - Atom type    2 has pseudo-core radius ..  5.9900

 Info on the Q-grid used for form factors in spline form: 
   Number of q-points for radial functions ffspl ..  10359
   Number of q-points for vlspl ...................  10359
   vloc is computed in Reciprocal Space
   model core charge treated in real-space

  XC functional for type 1 is 11
  Pseudo valence available: yes
  XC functional for type 2 is 11
  Pseudo valence available: yes

 wfconv:   107 bands initialized randomly with npw= 14938, for ikpt=     1
 wfconv:   107 bands initialized randomly with npw= 14920, for ikpt=     2
_setup2: Arith. and geom. avg. npw (full set) are   14902.625   14902.617
 initro: for itypat=  1, take pseudo charge density from pp file
 initro: for itypat=  2, take pseudo charge density from pp file

================================================================================

 getcut: wavevector=  0.0000  0.0000  0.0000  ngfft=  36  36 216
         ecut(hartree)=     22.500   => boxcut(ratio)=   2.08517

 1/G**2 cut-off applied in the following step : cutoff-mode = CRYSTAL

  --------------------------------------------------------------
  Van der Waals DFT-D2 semi-empirical dispersion potential added
      with following parameters:
      Specie  C6 (J.nm^6.mol^-1)  R0 (Ang)
      ------------------------------------
         Sn           38.71         1.804
         Se           12.64         1.771

      Scaling factor   =   0.75
      Damping parameter=  20.00
      Cut-off radius   = 130.92 bohr

      Number of pairs contributing =   338078
      DFT-D2 energy contribution   =   -1.94415E-01 Ha
  --------------------------------------------------------------


 1/G**2 cut-off applied in the following step : cutoff-mode = CRYSTAL

 1/G**2 cut-off applied in the following step : cutoff-mode = CRYSTAL

--- !WARNING
src_file: m_drivexc.F90
src_line: 707
message: |
    Density went too small (lower than xc_denpos) at 14094 points
    and was set to xc_denpos =   1.00E-14. Lowest was  -0.83E-03.
    Likely due to too low boxcut or too low ecut for pseudopotential core charge.
...


 ITER STEP NUMBER     1
 vtorho: nnsclo_now = 2, note that nnsclo, dbl_nnsclo, istep= 0 0 1
 Total charge density [el/Bohr^3]
      Maximum=    2.1319E+00  at reduced coord.    0.5278    0.9722    0.4861
      Minimum=    2.6015E-03  at reduced coord.    0.1389    0.3611    0.9769
   Integrated=    2.1000E+02

 1/G**2 cut-off applied in the following step : cutoff-mode = CRYSTAL
 ETOT  1  -1362.8642498256    -1.363E+03 8.875E-01 2.967E+05
 scprqt: <Vxc>= -3.6029540E-01 hartree

 Simple mixing update:
  residual square of the potential:    5298.9841886597324
 scfcv_core: previous iteration took 01:17 [minutes]

 ITER STEP NUMBER     2
 vtorho: nnsclo_now = 2, note that nnsclo, dbl_nnsclo, istep= 0 0 2
 Total charge density [el/Bohr^3]
      Maximum=    2.2518E+00  at reduced coord.    0.0000    0.5000    0.3796
      Minimum=    1.3517E-05  at reduced coord.    0.0000    0.5000    0.9954
   Integrated=    2.1000E+02
 ETOT  2  -1380.1964696865    -1.733E+01 4.855E-02 1.470E+06
 scprqt: <Vxc>= -3.0639674E-01 hartree

 Pulay update with  1 previous iterations:
 mixing of old trial potential: alpha(m:m-4)=  0.340      0.660
 scfcv_core: previous iteration took 01:16 [minutes]

 ITER STEP NUMBER     3
 vtorho: nnsclo_now = 1, note that nnsclo, dbl_nnsclo, istep= 0 0 3
 Total charge density [el/Bohr^3]
      Maximum=    2.2473E+00  at reduced coord.    0.0000    0.5000    0.8333
      Minimum=    8.3521E-06  at reduced coord.    0.3333    0.1667    0.0000
   Integrated=    2.1000E+02
 ETOT  3  -1391.9498034632    -1.175E+01 5.982E-02 1.150E+04
 scprqt: <Vxc>= -3.0962269E-01 hartree

 Pulay update with  2 previous iterations:
 mixing of old trial potential: alpha(m:m-4)=  0.548      0.125      0.327
 scfcv_core: previous iteration took 38.73 [s]

 ITER STEP NUMBER     4
 vtorho: nnsclo_now = 1, note that nnsclo, dbl_nnsclo, istep= 0 0 4
 Total charge density [el/Bohr^3]
      Maximum=    2.2232E+00  at reduced coord.    0.0000    0.5000    0.8333
      Minimum=    6.2830E-06  at reduced coord.    0.3333    0.1667    0.0000
   Integrated=    2.1000E+02
 ETOT  4  -1392.4446638287    -4.949E-01 1.026E-02 5.921E+03
 scprqt: <Vxc>= -3.1267228E-01 hartree

 Pulay update with  3 previous iterations:
 mixing of old trial potential: alpha(m:m-4)=  0.882     -0.137      0.690E-01  0.186
 scfcv_core: previous iteration took 38.63 [s]

 ITER STEP NUMBER     5
 vtorho: nnsclo_now = 1, note that nnsclo, dbl_nnsclo, istep= 0 0 5
 Total charge density [el/Bohr^3]
      Maximum=    2.2221E+00  at reduced coord.    0.0000    0.5000    0.8333
      Minimum=    6.2239E-06  at reduced coord.    0.3333    0.1667    0.0000
   Integrated=    2.1000E+02
 ETOT  5  -1392.5362472461    -9.158E-02 7.091E-03 3.218E+03
 scprqt: <Vxc>= -3.1396603E-01 hartree

 Pulay update with  4 previous iterations:
 mixing of old trial potential: alpha(m:m-4)=  0.929      0.115     -0.152      0.102E-01  0.978E-01
 scfcv_core: previous iteration took 38.71 [s]

 ITER STEP NUMBER     6
 vtorho: nnsclo_now = 1, note that nnsclo, dbl_nnsclo, istep= 0 0 6
 Total charge density [el/Bohr^3]
      Maximum=    2.2154E+00  at reduced coord.    0.0000    0.5000    0.8333
      Minimum=    6.2594E-06  at reduced coord.    0.3333    0.1667    0.0000
   Integrated=    2.1000E+02
 ETOT  6  -1392.5428015383    -6.554E-03 2.439E-03 6.470E+03
 scprqt: <Vxc>= -3.1514886E-01 hartree

 Pulay update with  5 previous iterations:
 mixing of old trial potential: alpha(m:m-4)=  0.658      0.297      0.260E-01 -0.440E-01 -0.154E-01
 scfcv_core: previous iteration took 38.72 [s]

 ITER STEP NUMBER     7
 vtorho: nnsclo_now = 1, note that nnsclo, dbl_nnsclo, istep= 0 0 7
 Total charge density [el/Bohr^3]
      Maximum=    2.2148E+00  at reduced coord.    0.0000    0.5000    0.8333
      Minimum=    6.2859E-06  at reduced coord.    0.3333    0.1667    0.0000
   Integrated=    2.1000E+02
 ETOT  7  -1392.5539477671    -1.115E-02 1.250E-03 5.072E+03
 scprqt: <Vxc>= -3.1553315E-01 hartree

 Pulay update with  6 previous iterations:
 mixing of old trial potential: alpha(m:m-4)=   1.04     -0.217      0.140     -0.106E-01  0.543E-02
 scfcv_core: previous iteration took 38.78 [s]

 ITER STEP NUMBER     8
 vtorho: nnsclo_now = 1, note that nnsclo, dbl_nnsclo, istep= 0 0 8
 Total charge density [el/Bohr^3]
      Maximum=    2.2140E+00  at reduced coord.    0.0000    0.5000    0.8333
      Minimum=    6.4122E-06  at reduced coord.    0.3333    0.1667    0.0000
   Integrated=    2.1000E+02
 ETOT  8  -1392.5643819067    -1.043E-02 1.572E-03 3.639E+03
 scprqt: <Vxc>= -3.1590581E-01 hartree

 Pulay update with  7 previous iterations:
 mixing of old trial potential: alpha(m:m-4)=  0.973      0.289E-01 -0.606E-01  0.805E-01 -0.796E-01
 scfcv_core: previous iteration took 38.70 [s]

 ITER STEP NUMBER     9
 vtorho: nnsclo_now = 1, note that nnsclo, dbl_nnsclo, istep= 0 0 9
 Total charge density [el/Bohr^3]
      Maximum=    2.2136E+00  at reduced coord.    0.0000    0.5000    0.8333
      Minimum=    6.5605E-06  at reduced coord.    0.3333    0.1667    0.0000
   Integrated=    2.1000E+02
 ETOT  9  -1392.5736394112    -9.258E-03 7.227E-04 2.274E+03
 scprqt: <Vxc>= -3.1624177E-01 hartree

 Pulay update with  7 previous iterations:
 mixing of old trial potential: alpha(m:m-4)=   1.15     -0.191      0.315     -0.685E-01 -0.750E-01
 scfcv_core: previous iteration took 38.75 [s]

 ITER STEP NUMBER    10
 vtorho: nnsclo_now = 1, note that nnsclo, dbl_nnsclo, istep= 0 0 10
 Total charge density [el/Bohr^3]
      Maximum=    2.2120E+00  at reduced coord.    0.0000    0.5000    0.3796
      Minimum=    7.0449E-06  at reduced coord.    0.3333    0.1667    0.0000
   Integrated=    2.1000E+02
 ETOT 10  -1392.5810262635    -7.387E-03 9.559E-04 1.248E+03
 scprqt: <Vxc>= -3.1710754E-01 hartree

 Pulay update with  7 previous iterations:
 mixing of old trial potential: alpha(m:m-4)=  0.598      0.914     -0.343      0.341     -0.775
 scfcv_core: previous iteration took 38.12 [s]

 ITER STEP NUMBER    11
 vtorho: nnsclo_now = 1, note that nnsclo, dbl_nnsclo, istep= 0 0 11
 Total charge density [el/Bohr^3]
      Maximum=    2.2128E+00  at reduced coord.    0.0000    0.5000    0.8333
      Minimum=    7.1288E-06  at reduced coord.    0.3333    0.1667    0.0000
   Integrated=    2.1000E+02
 ETOT 11  -1392.5876010420    -6.575E-03 1.213E-03 8.121E+01
 scprqt: <Vxc>= -3.1720229E-01 hartree

 Pulay update with  7 previous iterations:
 mixing of old trial potential: alpha(m:m-4)=  0.929     -0.593      0.920      0.811E-01  0.245
 scfcv_core: previous iteration took 38.80 [s]

 ITER STEP NUMBER    12
 vtorho: nnsclo_now = 1, note that nnsclo, dbl_nnsclo, istep= 0 0 12
 Total charge density [el/Bohr^3]
      Maximum=    2.2123E+00  at reduced coord.    0.0000    0.5000    0.8333
      Minimum=    7.3472E-06  at reduced coord.    0.3333    0.1667    0.0000
   Integrated=    2.1000E+02
 ETOT 12  -1392.5880698520    -4.688E-04 5.253E-04 9.715E+01
 scprqt: <Vxc>= -3.1729523E-01 hartree

 Pulay update with  7 previous iterations:
 mixing of old trial potential: alpha(m:m-4)=  0.969      0.343      -1.00      0.819      0.373E-01
 scfcv_core: previous iteration took 38.76 [s]

 ITER STEP NUMBER    13
 vtorho: nnsclo_now = 1, note that nnsclo, dbl_nnsclo, istep= 0 0 13
 Total charge density [el/Bohr^3]
      Maximum=    2.2125E+00  at reduced coord.    0.0000    0.5000    0.8333
      Minimum=    7.4804E-06  at reduced coord.    0.3333    0.1667    0.0000
   Integrated=    2.1000E+02
 ETOT 13  -1392.5883982078    -3.284E-04 1.034E-03 2.846E+01
 scprqt: <Vxc>= -3.1739442E-01 hartree

 Pulay update with  7 previous iterations:
 mixing of old trial potential: alpha(m:m-4)=   1.40     -0.855      0.509     -0.362      0.369E-01
 scfcv_core: previous iteration took 38.72 [s]

 ITER STEP NUMBER    14
 vtorho: nnsclo_now = 1, note that nnsclo, dbl_nnsclo, istep= 0 0 14
 Total charge density [el/Bohr^3]
      Maximum=    2.2119E+00  at reduced coord.    0.0000    0.5000    0.8333
      Minimum=    7.3481E-06  at reduced coord.    0.3333    0.1667    0.0000
   Integrated=    2.1000E+02
 ETOT 14  -1392.5878394995     5.587E-04 2.016E-04 1.188E+02
 scprqt: <Vxc>= -3.1731094E-01 hartree

 Pulay update with  7 previous iterations:
 mixing of old trial potential: alpha(m:m-4)=   1.03       1.40      -1.13      0.137     -0.257
 scfcv_core: previous iteration took 38.86 [s]

 ITER STEP NUMBER    15
 vtorho: nnsclo_now = 1, note that nnsclo, dbl_nnsclo, istep= 0 0 15
 Total charge density [el/Bohr^3]
      Maximum=    2.2121E+00  at reduced coord.    0.0000    0.5000    0.8333
      Minimum=    7.6050E-06  at reduced coord.    0.3333    0.1667    0.0000
   Integrated=    2.1000E+02
 ETOT 15  -1392.5882148047    -3.753E-04 4.221E-04 4.913E+01
 scprqt: <Vxc>= -3.1738955E-01 hartree

 Pulay update with  7 previous iterations:
 mixing of old trial potential: alpha(m:m-4)=  0.976     -0.515     -0.415      0.990      0.139
 scfcv_core: previous iteration took 38.81 [s]

 ITER STEP NUMBER    16
 vtorho: nnsclo_now = 1, note that nnsclo, dbl_nnsclo, istep= 0 0 16
 Total charge density [el/Bohr^3]
      Maximum=    2.2124E+00  at reduced coord.    0.0000    0.5000    0.8333
      Minimum=    7.6726E-06  at reduced coord.    0.3333    0.1667    0.0000
   Integrated=    2.1000E+02
 ETOT 16  -1392.5883913866    -1.766E-04 6.408E-05 1.970E+01
 scprqt: <Vxc>= -3.1743622E-01 hartree

 Pulay update with  7 previous iterations:
 mixing of old trial potential: alpha(m:m-4)=  0.517      0.342      0.143     -0.264      0.372
 scfcv_core: previous iteration took 38.76 [s]

 ITER STEP NUMBER    17
 vtorho: nnsclo_now = 1, note that nnsclo, dbl_nnsclo, istep= 0 0 17
 Total charge density [el/Bohr^3]
      Maximum=    2.2124E+00  at reduced coord.    0.0000    0.5000    0.8333
      Minimum=    7.7599E-06  at reduced coord.    0.3333    0.1667    0.0000
   Integrated=    2.1000E+02
 ETOT 17  -1392.5884708807    -7.949E-05 1.080E-04 3.299E+00
 scprqt: <Vxc>= -3.1747964E-01 hartree

 Pulay update with  7 previous iterations:
 mixing of old trial potential: alpha(m:m-4)=   1.13     -0.467     -0.273E-01  0.446     -0.184
 scfcv_core: previous iteration took 38.74 [s]

 ITER STEP NUMBER    18
 vtorho: nnsclo_now = 1, note that nnsclo, dbl_nnsclo, istep= 0 0 18
 Total charge density [el/Bohr^3]
      Maximum=    2.2124E+00  at reduced coord.    0.0000    0.5000    0.8333
      Minimum=    7.6885E-06  at reduced coord.    0.3333    0.1667    0.0000
   Integrated=    2.1000E+02
 ETOT 18  -1392.5884604912     1.039E-05 2.274E-05 6.157E+00
 scprqt: <Vxc>= -3.1745594E-01 hartree

 Pulay update with  7 previous iterations:
 mixing of old trial potential: alpha(m:m-4)=   1.57      0.913      -1.09     -0.477      0.521
 scfcv_core: previous iteration took 38.79 [s]

 ITER STEP NUMBER    19
 vtorho: nnsclo_now = 1, note that nnsclo, dbl_nnsclo, istep= 0 0 19
 Total charge density [el/Bohr^3]
      Maximum=    2.2123E+00  at reduced coord.    0.0000    0.5000    0.8333
      Minimum=    7.8798E-06  at reduced coord.    0.3333    0.1667    0.0000
   Integrated=    2.1000E+02
 ETOT 19  -1392.5884839441    -2.345E-05 1.648E-05 4.254E-01
 scprqt: <Vxc>= -3.1752627E-01 hartree

 Pulay update with  7 previous iterations:
 mixing of old trial potential: alpha(m:m-4)=  0.612      0.774     -0.468E-01 -0.173     -0.148
 scfcv_core: previous iteration took 38.90 [s]

 ITER STEP NUMBER    20
 vtorho: nnsclo_now = 1, note that nnsclo, dbl_nnsclo, istep= 0 0 20
 Total charge density [el/Bohr^3]
      Maximum=    2.2123E+00  at reduced coord.    0.0000    0.5000    0.8333
      Minimum=    7.8629E-06  at reduced coord.    0.3333    0.1667    0.0000
   Integrated=    2.1000E+02
 ETOT 20  -1392.5884839156     2.850E-08 1.847E-05 5.150E-01
 scprqt: <Vxc>= -3.1752257E-01 hartree

 Pulay update with  7 previous iterations:
 mixing of old trial potential: alpha(m:m-4)=   1.08     -0.412E-01  0.262     -0.291      0.460E-01
 scfcv_core: previous iteration took 38.76 [s]

 ITER STEP NUMBER    21
 vtorho: nnsclo_now = 1, note that nnsclo, dbl_nnsclo, istep= 0 0 21
 Total charge density [el/Bohr^3]
      Maximum=    2.2123E+00  at reduced coord.    0.0000    0.5000    0.8333
      Minimum=    7.8939E-06  at reduced coord.    0.3333    0.1667    0.0000
   Integrated=    2.1000E+02
 ETOT 21  -1392.5884860639    -2.148E-06 1.859E-05 9.604E-02
 scprqt: <Vxc>= -3.1753381E-01 hartree

 Pulay update with  7 previous iterations:
 mixing of old trial potential: alpha(m:m-4)=   1.06      0.176     -0.318      0.200     -0.289E-01
 scfcv_core: previous iteration took 38.76 [s]

 ITER STEP NUMBER    22
 vtorho: nnsclo_now = 1, note that nnsclo, dbl_nnsclo, istep= 0 0 22
 Total charge density [el/Bohr^3]
      Maximum=    2.2123E+00  at reduced coord.    0.0000    0.5000    0.8333
      Minimum=    7.8925E-06  at reduced coord.    0.3333    0.1667    0.0000
   Integrated=    2.1000E+02
 ETOT 22  -1392.5884864877    -4.238E-07 1.444E-05 8.495E-02
 scprqt: <Vxc>= -3.1753275E-01 hartree

 Pulay update with  7 previous iterations:
 mixing of old trial potential: alpha(m:m-4)=   1.29      0.410E-01 -0.273     -0.433E-01 -0.111E-01
 scfcv_core: previous iteration took 38.95 [s]

 ITER STEP NUMBER    23
 vtorho: nnsclo_now = 1, note that nnsclo, dbl_nnsclo, istep= 0 0 23
 Total charge density [el/Bohr^3]
      Maximum=    2.2123E+00  at reduced coord.    0.0000    0.5000    0.8333
      Minimum=    7.9102E-06  at reduced coord.    0.3333    0.1667    0.0000
   Integrated=    2.1000E+02
 ETOT 23  -1392.5884869196    -4.319E-07 1.866E-05 1.952E-03
 scprqt: <Vxc>= -3.1753954E-01 hartree

 Pulay update with  7 previous iterations:
 mixing of old trial potential: alpha(m:m-4)=  0.598      0.566      0.420E-02 -0.140     -0.282E-01
 scfcv_core: previous iteration took 38.81 [s]

 ITER STEP NUMBER    24
 vtorho: nnsclo_now = 1, note that nnsclo, dbl_nnsclo, istep= 0 0 24
 Total charge density [el/Bohr^3]
      Maximum=    2.2123E+00  at reduced coord.    0.0000    0.5000    0.8333
      Minimum=    7.9102E-06  at reduced coord.    0.3333    0.1667    0.0000
   Integrated=    2.1000E+02
 ETOT 24  -1392.5884869368    -1.725E-08 1.070E-05 3.995E-04
 scprqt: <Vxc>= -3.1753967E-01 hartree

 Pulay update with  7 previous iterations:
 mixing of old trial potential: alpha(m:m-4)=   1.27     -0.226      0.798E-02 -0.433E-01 -0.228E-01
 scfcv_core: previous iteration took 38.78 [s]

 ITER STEP NUMBER    25
 vtorho: nnsclo_now = 1, note that nnsclo, dbl_nnsclo, istep= 0 0 25
 Total charge density [el/Bohr^3]
      Maximum=    2.2123E+00  at reduced coord.    0.0000    0.5000    0.8333
      Minimum=    7.9113E-06  at reduced coord.    0.3333    0.1667    0.0000
   Integrated=    2.1000E+02
 ETOT 25  -1392.5884869383    -1.473E-09 1.871E-05 1.060E-04
 scprqt: <Vxc>= -3.1754017E-01 hartree

 Pulay update with  7 previous iterations:
 mixing of old trial potential: alpha(m:m-4)=  0.785      0.295     -0.108      0.459E-01 -0.125E-01
 scfcv_core: previous iteration took 38.74 [s]

 ITER STEP NUMBER    26
 vtorho: nnsclo_now = 1, note that nnsclo, dbl_nnsclo, istep= 0 0 26
 Total charge density [el/Bohr^3]
      Maximum=    2.2123E+00  at reduced coord.    0.0000    0.5000    0.8333
      Minimum=    7.9109E-06  at reduced coord.    0.3333    0.1667    0.0000
   Integrated=    2.1000E+02
 ETOT 26  -1392.5884869390    -7.003E-10 8.322E-06 3.588E-06
 scprqt: <Vxc>= -3.1754004E-01 hartree

 Pulay update with  7 previous iterations:
 mixing of old trial potential: alpha(m:m-4)=  0.815      0.153      0.456E-01 -0.223E-01  0.149E-01
 scfcv_core: previous iteration took 38.75 [s]

 ITER STEP NUMBER    27
 vtorho: nnsclo_now = 1, note that nnsclo, dbl_nnsclo, istep= 0 0 27
 Total charge density [el/Bohr^3]
      Maximum=    2.2123E+00  at reduced coord.    0.0000    0.5000    0.8333
      Minimum=    7.9108E-06  at reduced coord.    0.3333    0.1667    0.0000
   Integrated=    2.1000E+02
 ETOT 27  -1392.5884869392    -1.758E-10 1.822E-05 5.215E-07
 scprqt: <Vxc>= -3.1754003E-01 hartree

 Pulay update with  7 previous iterations:
 mixing of old trial potential: alpha(m:m-4)=   1.30     -0.169E-01 -0.227     -0.762E-01  0.267E-01
 scfcv_core: previous iteration took 38.79 [s]

 ITER STEP NUMBER    28
 vtorho: nnsclo_now = 1, note that nnsclo, dbl_nnsclo, istep= 0 0 28
 Total charge density [el/Bohr^3]
      Maximum=    2.2123E+00  at reduced coord.    0.0000    0.5000    0.8333
      Minimum=    7.9108E-06  at reduced coord.    0.3333    0.1667    0.0000
   Integrated=    2.1000E+02
 ETOT 28  -1392.5884869392     1.273E-11 7.809E-06 2.344E-07
 scprqt: <Vxc>= -3.1754004E-01 hartree

 Pulay update with  7 previous iterations:
 mixing of old trial potential: alpha(m:m-4)=   1.05      0.494E-01 -0.400E-01 -0.459E-01 -0.255E-01
 scfcv_core: previous iteration took 38.79 [s]

 ITER STEP NUMBER    29
 vtorho: nnsclo_now = 1, note that nnsclo, dbl_nnsclo, istep= 0 0 29
 Total charge density [el/Bohr^3]
      Maximum=    2.2123E+00  at reduced coord.    0.0000    0.5000    0.8333
      Minimum=    7.9108E-06  at reduced coord.    0.3333    0.1667    0.0000
   Integrated=    2.1000E+02
 ETOT 29  -1392.5884869393    -1.669E-10 1.728E-05 1.474E-08
 scprqt: <Vxc>= -3.1754003E-01 hartree

 Pulay update with  7 previous iterations:
 mixing of old trial potential: alpha(m:m-4)=  0.961      0.876E-01 -0.686E-01  0.222E-01  0.162E-02
 scfcv_core: previous iteration took 38.79 [s]

[...]
                       0.000000  0.000000  0.000000  0.000000  0.000000  0.000000
                       0.000000  0.000000  0.000000  0.000000  0.000000  0.000000
                       0.000000  0.000000  0.000000  0.000000  0.000000  0.000000
                       0.000000  0.000000  0.000000  0.000000  0.000000  0.000000
                       0.000000  0.000000  0.000000  0.000000  0.000000  0.000000
                       0.000000  0.000000  0.000000  0.000000
              occ5     2.000000  2.000000  2.000000  2.000000  2.000000  2.000000
                       2.000000  2.000000  2.000000  2.000000  2.000000  2.000000
                       2.000000  2.000000  2.000000  2.000000  2.000000  2.000000
                       2.000000  2.000000  2.000000  2.000000  2.000000  2.000000
                       2.000000  2.000000  2.000000  2.000000  2.000000  2.000000
                       2.000000  2.000000  2.000000  2.000000  2.000000  2.000000
                       2.000000  2.000000  2.000000  2.000000  2.000000  2.000000
                       2.000000  2.000000  2.000000  2.000000  2.000000  2.000000
                       2.000000  2.000000  2.000000  2.000000  2.000000  2.000000
                       2.000000  2.000000  2.000000  2.000000  2.000000  2.000000
                       2.000000  2.000000  2.000000  2.000000  2.000000  2.000000
                       2.000000  2.000000  2.000000  2.000000  2.000000  2.000000
                       2.000000  2.000000  2.000000  2.000000  2.000000  2.000000
                       2.000000  2.000000  2.000000  2.000000  2.000000  2.000000
                       2.000000  2.000000  2.000000  2.000000  2.000000  2.000000
                       2.000000  2.000000  2.000000  2.000000  2.000000  2.000000
                       2.000000  2.000000  2.000000  2.000000  2.000000  2.000000
                       2.000000  2.000000  2.000000  0.000000  0.000000  0.000000
                       0.000000  0.000000  0.000000  0.000000  0.000000  0.000000
                       0.000000  0.000000  0.000000  0.000000  0.000000  0.000000
                       0.000000  0.000000  0.000000  0.000000  0.000000  0.000000
                       0.000000  0.000000  0.000000  0.000000  0.000000  0.000000
                       0.000000  0.000000  0.000000  0.000000  0.000000  0.000000
                       0.000000  0.000000  0.000000  0.000000  0.000000  0.000000
                       0.000000  0.000000  0.000000  0.000000  0.000000  0.000000
                       0.000000  0.000000  0.000000  0.000000  0.000000  0.000000
                       0.000000  0.000000  0.000000  0.000000  0.000000  0.000000
                       0.000000  0.000000  0.000000  0.000000  0.000000  0.000000
                       0.000000  0.000000  0.000000  0.000000  0.000000  0.000000
                       0.000000  0.000000  0.000000  0.000000  0.000000  0.000000
                       0.000000  0.000000  0.000000  0.000000  0.000000  0.000000
                       0.000000  0.000000  0.000000  0.000000  0.000000  0.000000
                       0.000000  0.000000  0.000000  0.000000  0.000000  0.000000
                       0.000000  0.000000  0.000000  0.000000  0.000000  0.000000
                       0.000000  0.000000  0.000000  0.000000  0.000000  0.000000
                       0.000000  0.000000  0.000000  0.000000  0.000000  0.000000
                       0.000000  0.000000  0.000000  0.000000
              occ6     2.000000  2.000000  2.000000  2.000000  2.000000  2.000000
                       2.000000  2.000000  2.000000  2.000000  2.000000  2.000000
                       2.000000  2.000000  2.000000  2.000000  2.000000  2.000000
                       2.000000  2.000000  2.000000  2.000000  2.000000  2.000000
                       2.000000  2.000000  2.000000  2.000000  2.000000  2.000000
                       2.000000  2.000000  2.000000  2.000000  2.000000  2.000000
                       2.000000  2.000000  2.000000  2.000000  2.000000  2.000000
                       2.000000  2.000000  2.000000  2.000000  2.000000  2.000000
                       2.000000  2.000000  2.000000  2.000000  2.000000  2.000000
                       2.000000  2.000000  2.000000  2.000000  2.000000  2.000000
                       2.000000  2.000000  2.000000  2.000000  2.000000  2.000000
                       2.000000  2.000000  2.000000  2.000000  2.000000  2.000000
                       2.000000  2.000000  2.000000  2.000000  2.000000  2.000000
                       2.000000  2.000000  2.000000  2.000000  2.000000  2.000000
                       2.000000  2.000000  2.000000  2.000000  2.000000  2.000000
                       2.000000  2.000000  2.000000  2.000000  2.000000  2.000000
                       2.000000  2.000000  2.000000  2.000000  2.000000  2.000000
                       2.000000  2.000000  2.000000  0.000000  0.000000  0.000000
                       0.000000  0.000000  0.000000  0.000000  0.000000  0.000000
                       0.000000  0.000000  0.000000  0.000000  0.000000  0.000000
                       0.000000  0.000000  0.000000  0.000000  0.000000  0.000000
                       0.000000  0.000000  0.000000  0.000000  0.000000  0.000000
                       0.000000  0.000000  0.000000  0.000000  0.000000  0.000000
                       0.000000  0.000000  0.000000  0.000000  0.000000  0.000000
                       0.000000  0.000000  0.000000  0.000000  0.000000  0.000000
                       0.000000  0.000000  0.000000  0.000000  0.000000  0.000000
                       0.000000  0.000000  0.000000  0.000000  0.000000  0.000000
                       0.000000  0.000000  0.000000  0.000000  0.000000  0.000000
                       0.000000  0.000000  0.000000  0.000000  0.000000  0.000000
                       0.000000  0.000000  0.000000  0.000000  0.000000  0.000000
                       0.000000  0.000000  0.000000  0.000000  0.000000  0.000000
                       0.000000  0.000000  0.000000  0.000000  0.000000  0.000000
                       0.000000  0.000000  0.000000  0.000000  0.000000  0.000000
                       0.000000  0.000000  0.000000  0.000000  0.000000  0.000000
                       0.000000  0.000000  0.000000  0.000000  0.000000  0.000000
                       0.000000  0.000000  0.000000  0.000000  0.000000  0.000000
                       0.000000  0.000000  0.000000  0.000000
        optdriver1          0
        optdriver2          0
        optdriver3          0
        optdriver4          1
        optdriver5          1
        optdriver6          1
            prtwf1          1
            prtwf2          1
            prtwf3          1
            prtwf4          3
            prtwf5          3
            prtwf6          3
            rfdir1          0       0       0
            rfdir2          0       0       0
            rfdir3          0       0       0
            rfdir4          1       0       0
            rfdir5          0       1       0
            rfdir6          0       0       1
           rfelfd1          0
           rfelfd2          0
           rfelfd3          0
           rfelfd4          2
           rfelfd5          2
           rfelfd6          2
            rprim      1.0000000000E+00  0.0000000000E+00  0.0000000000E+00
                       0.0000000000E+00  1.0000000000E+00  0.0000000000E+00
                       0.0000000000E+00  0.0000000000E+00  6.2496953284E+00
           shiftk      5.00000000E-01  5.00000000E-01  5.00000000E-01
          spgroup          99
           strten1     1.3699513917E-02  1.3699513917E-02  1.3413954151E-02
                       0.0000000000E+00  0.0000000000E+00  0.0000000000E+00
           symrel      1  0  0   0  1  0   0  0  1       1  0  0   0 -1  0   0  0  1
                      -1  0  0   0 -1  0   0  0  1      -1  0  0   0  1  0   0  0  1
                       0  1  0   1  0  0   0  0  1       0  1  0  -1  0  0   0  0  1
                       0 -1  0  -1  0  0   0  0  1       0 -1  0   1  0  0   0  0  1
            tnons      0.0000000  0.0000000  0.0000000     0.0000000  0.0000000  0.0000000
                      -0.0000000  0.0000000  0.0000000    -0.0000000  0.0000000  0.0000000
                       0.5000000  0.5000000  0.0000000     0.5000000  0.5000000  0.0000000
                       0.5000000  0.5000000  0.0000000     0.5000000  0.5000000  0.0000000
           tolwfr      1.00000000E-20
            typat      1  1  1  1  1  1  1  2  2  2  2  2  2  2
           vdw_xc           5
              wtk1       0.06250    0.12500    0.12500    0.12500    0.06250    0.12500
                         0.12500    0.06250    0.12500    0.06250
              wtk2       0.06250    0.12500    0.12500    0.12500    0.06250    0.12500
                         0.12500    0.06250    0.12500    0.06250
              wtk3       0.03125    0.03125    0.03125    0.03125    0.03125    0.03125
                         0.03125    0.03125    0.03125    0.03125    0.03125    0.03125
                         0.03125    0.03125    0.03125    0.03125    0.03125    0.03125
                         0.03125    0.03125    0.03125    0.03125    0.03125    0.03125
                         0.03125    0.03125    0.03125    0.03125    0.03125    0.03125
                         0.03125    0.03125
              wtk4       0.03125    0.03125    0.03125    0.03125    0.03125    0.03125
                         0.03125    0.03125    0.03125    0.03125    0.03125    0.03125
                         0.03125    0.03125    0.03125    0.03125    0.03125    0.03125
                         0.03125    0.03125    0.03125    0.03125    0.03125    0.03125
                         0.03125    0.03125    0.03125    0.03125    0.03125    0.03125
                         0.03125    0.03125
              wtk5       0.03125    0.03125    0.03125    0.03125    0.03125    0.03125
                         0.03125    0.03125    0.03125    0.03125    0.03125    0.03125
                         0.03125    0.03125    0.03125    0.03125    0.03125    0.03125
                         0.03125    0.03125    0.03125    0.03125    0.03125    0.03125
                         0.03125    0.03125    0.03125    0.03125    0.03125    0.03125
                         0.03125    0.03125
              wtk6       0.03125    0.03125    0.03125    0.03125    0.03125    0.03125
                         0.03125    0.03125    0.03125    0.03125    0.03125    0.03125
                         0.03125    0.03125    0.03125    0.03125    0.03125    0.03125
                         0.03125    0.03125    0.03125    0.03125    0.03125    0.03125
                         0.03125    0.03125    0.03125    0.03125    0.03125    0.03125
                         0.03125    0.03125
           xangst      2.0538509643E+00  0.0000000000E+00  4.6664556527E+00
                       0.0000000000E+00  2.0538509643E+00  7.4160942986E+00
                       2.0538509643E+00  0.0000000000E+00  1.0102195028E+01
                       0.0000000000E+00  2.0538509643E+00  1.2851833674E+01
                       2.0538509643E+00  0.0000000000E+00  1.5537934403E+01
                       0.0000000000E+00  2.0538509643E+00  1.8287547377E+01
                       2.0538509643E+00  0.0000000000E+00  2.0973648106E+01
                       0.0000000000E+00  2.0538509643E+00  4.6982374470E+00
                       2.0538509643E+00  0.0000000000E+00  7.3843381762E+00
                       0.0000000000E+00  2.0538509643E+00  1.0133951150E+01
                       2.0538509643E+00  0.0000000000E+00  1.2820051879E+01
                       0.0000000000E+00  2.0538509643E+00  1.5569690525E+01
                       2.0538509643E+00  0.0000000000E+00  1.8255791255E+01
                       0.0000000000E+00  2.0538509643E+00  2.1005429901E+01
            xcart      3.8812158402E+00  0.0000000000E+00  8.8183231948E+00
                       0.0000000000E+00  3.8812158402E+00  1.4014387200E+01
                       3.8812158402E+00  0.0000000000E+00  1.9090381944E+01
                       0.0000000000E+00  3.8812158402E+00  2.4286445949E+01
                       3.8812158402E+00  0.0000000000E+00  2.9362440692E+01
                       0.0000000000E+00  3.8812158402E+00  3.4558456185E+01
                       3.8812158402E+00  0.0000000000E+00  3.9634450928E+01
                       0.0000000000E+00  3.8812158402E+00  8.8783820821E+00
                       3.8812158402E+00  0.0000000000E+00  1.3954376826E+01
                       0.0000000000E+00  3.8812158402E+00  1.9150392318E+01
                       3.8812158402E+00  0.0000000000E+00  2.4226387062E+01
                       0.0000000000E+00  3.8812158402E+00  2.9422451067E+01
                       3.8812158402E+00  0.0000000000E+00  3.4498445810E+01
                       0.0000000000E+00  3.8812158402E+00  3.9694509816E+01
             xred      5.0000000000E-01  0.0000000000E+00  1.8177300000E-01
                       0.0000000000E+00  5.0000000000E-01  2.8888000000E-01
                       5.0000000000E-01  0.0000000000E+00  3.9351200000E-01
                       0.0000000000E+00  5.0000000000E-01  5.0061900000E-01
                       5.0000000000E-01  0.0000000000E+00  6.0525100000E-01
                       0.0000000000E+00  5.0000000000E-01  7.1235700000E-01
                       5.0000000000E-01  0.0000000000E+00  8.1698900000E-01
                       0.0000000000E+00  5.0000000000E-01  1.8301100000E-01
                       5.0000000000E-01  0.0000000000E+00  2.8764300000E-01
                       0.0000000000E+00  5.0000000000E-01  3.9474900000E-01
                       5.0000000000E-01  0.0000000000E+00  4.9938100000E-01
                       0.0000000000E+00  5.0000000000E-01  6.0648800000E-01
                       5.0000000000E-01  0.0000000000E+00  7.1112000000E-01
                       0.0000000000E+00  5.0000000000E-01  8.1822700000E-01
            znucl       50.00000   34.00000

================================================================================
  

================================================================================

 Suggested references for the acknowledgment of ABINIT usage.

 The users of ABINIT have little formal obligations with respect to the ABINIT group
 (those specified in the GNU General Public License, http://www.gnu.org/copyleft/gpl.txt).
 However, it is common practice in the scientific literature,
 to acknowledge the efforts of people that have made the research possible.
 In this spirit, please find below suggested citations of work written by ABINIT developers,
 corresponding to implementations inside of ABINIT that you have used in the present run.
 Note also that it will be of great value to readers of publications presenting these results,
 to read papers enabling them to understand the theoretical formalism and details
 of the ABINIT implementation.
 For information on why they are suggested, see also https://docs.abinit.org/theory/acknowledgments.
-
- [1] The Abinit project: Impact, environment and recent developments.
- Computer Phys. Comm. 248, 107042 (2020).
- X.Gonze, B. Amadon, G. Antonius, F.Arnardi, L.Baguet, J.-M.Beuken,
- J.Bieder, F.Bottin, J.Bouchet, E.Bousquet, N.Brouwer, F.Bruneval,
- G.Brunin, T.Cavignac, J.-B. Charraud, Wei Chen, M.Cote, S.Cottenier,
- J.Denier, G.Geneste, Ph.Ghosez, M.Giantomassi, Y.Gillet, O.Gingras,
- D.R.Hamann, G.Hautier, Xu He, N.Helbig, N.Holzwarth, Y.Jia, F.Jollet,
- W.Lafargue-Dit-Hauret, K.Lejaeghere, M.A.L.Marques, A.Martin, C.Martins,
- H.P.C. Miranda, F.Naccarato, K. Persson, G.Petretto, V.Planes, Y.Pouillon,
- S.Prokhorenko, F.Ricci, G.-M.Rignanese, A.H.Romero, M.M.Schmitt, M.Torrent,
- M.J.van Setten, B.Van Troeye, M.J.Verstraete, G.Zerah and J.W.Zwanzig
- Comment: the fifth generic paper describing the ABINIT project.
- Note that a version of this paper, that is not formatted for Computer Phys. Comm. 
- is available at https://www.abinit.org/sites/default/files/ABINIT20.pdf .
- The licence allows the authors to put it on the Web.
- DOI and bibtex: see https://docs.abinit.org/theory/bibliography/#gonze2020
-
- [2] First-principles responses of solids to atomic displacements and homogeneous electric fields:,
- implementation of a conjugate-gradient algorithm. X. Gonze, Phys. Rev. B55, 10337 (1997).
- Comment: Non-vanishing rfphon and/or rfelfd, in the norm-conserving case.
- DOI and bibtex: see https://docs.abinit.org/theory/bibliography/#gonze1997
-
- [3] Dynamical matrices, Born effective charges, dielectric permittivity tensors, and ,
- interatomic force constants from density-functional perturbation theory,
- X. Gonze and C. Lee, Phys. Rev. B55, 10355 (1997).
- Comment: Non-vanishing rfphon and/or rfelfd, in the norm-conserving case.
- DOI and bibtex: see https://docs.abinit.org/theory/bibliography/#gonze1997a
-
- [4] Optimized norm-conserving Vanderbilt pseudopotentials.
- D.R. Hamann, Phys. Rev. B 88, 085117 (2013).
- Comment: Some pseudopotential generated using the ONCVPSP code were used.
- DOI and bibtex: see https://docs.abinit.org/theory/bibliography/#hamann2013
-
- [5] ABINIT: Overview, and focus on selected capabilities
- J. Chem. Phys. 152, 124102 (2020).
- A. Romero, D.C. Allan, B. Amadon, G. Antonius, T. Applencourt, L.Baguet,
- J.Bieder, F.Bottin, J.Bouchet, E.Bousquet, F.Bruneval,
- G.Brunin, D.Caliste, M.Cote,
- J.Denier, C. Dreyer, Ph.Ghosez, M.Giantomassi, Y.Gillet, O.Gingras,
- D.R.Hamann, G.Hautier, F.Jollet, G. Jomard,
- A.Martin, 
- H.P.C. Miranda, F.Naccarato, G.Petretto, N.A. Pike, V.Planes,
- S.Prokhorenko, T. Rangel, F.Ricci, G.-M.Rignanese, M.Royo, M.Stengel, M.Torrent,
- M.J.van Setten, B.Van Troeye, M.J.Verstraete, J.Wiktor, J.W.Zwanziger, and X.Gonze.
- Comment: a global overview of ABINIT, with focus on selected capabilities .
- Note that a version of this paper, that is not formatted for J. Chem. Phys 
- is available at https://www.abinit.org/sites/default/files/ABINIT20_JPC.pdf .
- The licence allows the authors to put it on the Web.
- DOI and bibtex: see https://docs.abinit.org/theory/bibliography/#romero2020
-
- [6] Recent developments in the ABINIT software package.
- Computer Phys. Comm. 205, 106 (2016).
- X.Gonze, F.Jollet, F.Abreu Araujo, D.Adams, B.Amadon, T.Applencourt,
- C.Audouze, J.-M.Beuken, J.Bieder, A.Bokhanchuk, E.Bousquet, F.Bruneval
- D.Caliste, M.Cote, F.Dahm, F.Da Pieve, M.Delaveau, M.Di Gennaro,
- B.Dorado, C.Espejo, G.Geneste, L.Genovese, A.Gerossier, M.Giantomassi,
- Y.Gillet, D.R.Hamann, L.He, G.Jomard, J.Laflamme Janssen, S.Le Roux,
- A.Levitt, A.Lherbier, F.Liu, I.Lukacevic, A.Martin, C.Martins,
- M.J.T.Oliveira, S.Ponce, Y.Pouillon, T.Rangel, G.-M.Rignanese,
- A.H.Romero, B.Rousseau, O.Rubel, A.A.Shukri, M.Stankovski, M.Torrent,
- M.J.Van Setten, B.Van Troeye, M.J.Verstraete, D.Waroquier, J.Wiktor,
- B.Xu, A.Zhou, J.W.Zwanziger.
- Comment: the fourth generic paper describing the ABINIT project.
- Note that a version of this paper, that is not formatted for Computer Phys. Comm. 
- is available at https://www.abinit.org/sites/default/files/ABINIT16.pdf .
- The licence allows the authors to put it on the Web.
- DOI and bibtex: see https://docs.abinit.org/theory/bibliography/#gonze2016
 Proc.   0 individual time (sec): cpu=       7621.0  wall=       7621.4

 Calculation completed.
.Delivered   6 WARNINGs and   0 COMMENTs to log file.

--- !FinalSummary
program: abinit
version: 9.2.2
start_datetime: Tue Feb 27 23:23:38 2024
end_datetime: Wed Feb 28 01:30:39 2024
overall_cpu_time:       45725.8
overall_wall_time:       45727.8
exit_requested_by_user: no 
timelimit: 0
pseudos: 
    Sn  : c918e999fc214fef37654f9ff7d5f03d
    Se  : f801923bd422df98a30264e8ccc86374
usepaw: 0
mpi_procs: 6
omp_threads: 1
num_warnings: 6
num_comments: 0
...
