
.Version 9.2.2 of ABINIT 
.(MPI version, prepared for a x86_64_linux_gnu9.3 computer) 

.Copyright (C) 1998-2020 ABINIT group . 
 ABINIT comes with ABSOLUTELY NO WARRANTY.
 It is free software, and you are welcome to redistribute it
 under certain conditions (GNU General Public License,
 see ~abinit/COPYING or http://www.gnu.org/copyleft/gpl.txt).

 ABINIT is a project of the Universite Catholique de Louvain,
 Corning Inc. and other collaborators, see ~abinit/doc/developers/contributors.txt .
 Please read https://docs.abinit.org/theory/acknowledgments for suggested
 acknowledgments of the ABINIT effort.
 For more information, see https://www.abinit.org .

.Starting date : Wed 28 Feb 2024.
- ( at 08h47 )
  
- The starting date is more than 3 years after the initial release
- of this version of ABINIT, namely Nov 2020.
- This version of ABINIT is not supported anymore.
- Action: please, switch to a more recent version of ABINIT.
- input  file    -> Cs2TiI6.in
- output file    -> Cs2TiI6.out
- root for input  files -> Cs2TiI6i
- root for output files -> Cs2TiI6o


 Symmetries : space group P4/n m m (#129); Bravais tP (primitive tetrag.)
================================================================================
 Values of the parameters that define the memory need of the present run
     intxc =       0    ionmov =       0      iscf =      17    lmnmax =       6
     lnmax =       6     mgfft =     240  mpssoang =       3    mqgrid =   11456
     natom =      16  nloc_mem =       1    nspden =       1   nspinor =       1
    nsppol =       1      nsym =      16    n1xccc =    2501    ntypat =       2
    occopt =       1   xclevel =       2
-    mband =         122        mffmem =           1         mkmem =           2
       mpw =       16508          nfft =      311040          nkpt =          10
================================================================================
P This job should need less than                     172.448 Mbytes of memory.
  Rough estimation (10% accuracy) of disk space for files :
_ WF disk file :    307.310 Mbytes ; DEN or POT disk file :      2.375 Mbytes.
================================================================================

--------------------------------------------------------------------------------
------------- Echo of variables that govern the present computation ------------
--------------------------------------------------------------------------------
-
- outvars: echo of selected default values                                      
-   iomode0 =  0 , fftalg0 =112 , wfoptalg0 =  0
-
- outvars: echo of global parameters not present in the input file              
-  max_nthreads =    0
-
 -outvars: echo values of preprocessed input variables --------
            acell      7.7624316804E+00  7.7624316804E+00  7.7624316804E+00 Bohr
              amu      1.18710000E+02  7.89600000E+01
           diemac      1.20000000E+01
             ecut      2.25000000E+01 Hartree
-          fftalg         112
             iscf          17
              ixc          11
              kpt      6.25000000E-02  6.25000000E-02  5.00000000E-01
                       1.87500000E-01  6.25000000E-02  5.00000000E-01
                       3.12500000E-01  6.25000000E-02  5.00000000E-01
                       4.37500000E-01  6.25000000E-02  5.00000000E-01
                       1.87500000E-01  1.87500000E-01  5.00000000E-01
                       3.12500000E-01  1.87500000E-01  5.00000000E-01
                       4.37500000E-01  1.87500000E-01  5.00000000E-01
                       3.12500000E-01  3.12500000E-01  5.00000000E-01
                       4.37500000E-01  3.12500000E-01  5.00000000E-01
                       4.37500000E-01  4.37500000E-01  5.00000000E-01
         kptrlatt        8    0    0      0    8    0      0    0    1
          kptrlen      6.20994534E+01
P           mkmem           2
            natom          16
            nband         122
            ngfft          36      36     240
             nkpt          10
            nstep         150
             nsym          16
           ntypat           2
              occ      2.000000  2.000000  2.000000  2.000000  2.000000  2.000000
                       2.000000  2.000000  2.000000  2.000000  2.000000  2.000000
                       2.000000  2.000000  2.000000  2.000000  2.000000  2.000000
                       2.000000  2.000000  2.000000  2.000000  2.000000  2.000000
                       2.000000  2.000000  2.000000  2.000000  2.000000  2.000000
                       2.000000  2.000000  2.000000  2.000000  2.000000  2.000000
                       2.000000  2.000000  2.000000  2.000000  2.000000  2.000000
                       2.000000  2.000000  2.000000  2.000000  2.000000  2.000000
                       2.000000  2.000000  2.000000  2.000000  2.000000  2.000000
                       2.000000  2.000000  2.000000  2.000000  2.000000  2.000000
                       2.000000  2.000000  2.000000  2.000000  2.000000  2.000000
                       2.000000  2.000000  2.000000  2.000000  2.000000  2.000000
                       2.000000  2.000000  2.000000  2.000000  2.000000  2.000000
                       2.000000  2.000000  2.000000  2.000000  2.000000  2.000000
                       2.000000  2.000000  2.000000  2.000000  2.000000  2.000000
                       2.000000  2.000000  2.000000  2.000000  2.000000  2.000000
                       2.000000  2.000000  2.000000  2.000000  2.000000  2.000000
                       2.000000  2.000000  2.000000  2.000000  2.000000  2.000000
                       2.000000  2.000000  2.000000  2.000000  2.000000  2.000000
                       2.000000  2.000000  2.000000  2.000000  2.000000  2.000000
                       0.000000  0.000000
           prtcif           1
            rprim      1.0000000000E+00  0.0000000000E+00  0.0000000000E+00
                       0.0000000000E+00  1.0000000000E+00  0.0000000000E+00
                       0.0000000000E+00  0.0000000000E+00  6.9113460519E+00
           shiftk      5.00000000E-01  5.00000000E-01  5.00000000E-01
          spgroup         129
           symrel      1  0  0   0  1  0   0  0  1      -1  0  0   0 -1  0   0  0 -1
                      -1  0  0   0  1  0   0  0 -1       1  0  0   0 -1  0   0  0  1
                      -1  0  0   0 -1  0   0  0  1       1  0  0   0  1  0   0  0 -1
                       1  0  0   0 -1  0   0  0 -1      -1  0  0   0  1  0   0  0  1
                       0  1  0   1  0  0   0  0  1       0 -1  0  -1  0  0   0  0 -1
                       0 -1  0   1  0  0   0  0 -1       0  1  0  -1  0  0   0  0  1
                       0 -1  0  -1  0  0   0  0  1       0  1  0   1  0  0   0  0 -1
                       0  1  0  -1  0  0   0  0 -1       0 -1  0   1  0  0   0  0  1
            tnons      0.0000000  0.0000000  0.0000000     0.5000000  0.5000000 -0.0000000
                       0.5000000  0.5000000 -0.0000000     0.0000000  0.0000000  0.0000000
                      -0.0000000  0.0000000  0.0000000     0.5000000  0.5000000 -0.0000000
                       0.5000000  0.5000000 -0.0000000    -0.0000000  0.0000000  0.0000000
                       0.5000000  0.5000000  0.0000000     0.0000000 -0.0000000 -0.0000000
                       0.0000000 -0.0000000 -0.0000000     0.5000000  0.5000000  0.0000000
                       0.5000000  0.5000000  0.0000000     0.0000000  0.0000000 -0.0000000
                       0.0000000  0.0000000 -0.0000000     0.5000000  0.5000000  0.0000000
           toldfe      1.00000000E-06 Hartree
            typat      1  1  1  1  1  1  1  1  2  2  2  2  2  2  2  2
           vdw_xc           5
              wtk        0.06250    0.12500    0.12500    0.12500    0.06250    0.12500
                         0.12500    0.06250    0.12500    0.06250
           xangst      2.0538509643E+00  0.0000000000E+00  4.6664799058E+00
                       0.0000000000E+00  2.0538509643E+00  7.4160839249E+00
                       2.0538509643E+00  0.0000000000E+00  1.0102208464E+01
                       0.0000000000E+00  2.0538509643E+00  1.2851812483E+01
                       2.0538509643E+00  0.0000000000E+00  1.5537937023E+01
                       0.0000000000E+00  2.0538509643E+00  1.8287541042E+01
                       2.0538509643E+00  0.0000000000E+00  2.0973665581E+01
                       0.0000000000E+00  2.0538509643E+00  2.3723269600E+01
                       0.0000000000E+00  2.0538509643E+00  4.6982196457E+00
                       2.0538509643E+00  0.0000000000E+00  7.3843441850E+00
                       0.0000000000E+00  2.0538509643E+00  1.0133948204E+01
                       2.0538509643E+00  0.0000000000E+00  1.2820072743E+01
                       0.0000000000E+00  2.0538509643E+00  1.5569676763E+01
                       2.0538509643E+00  0.0000000000E+00  1.8255801302E+01
                       0.0000000000E+00  2.0538509643E+00  2.1005405321E+01
                       2.0538509643E+00  0.0000000000E+00  2.3691529860E+01
            xcart      3.8812158402E+00  0.0000000000E+00  8.8183690266E+00
                       0.0000000000E+00  3.8812158402E+00  1.4014367597E+01
                       3.8812158402E+00  0.0000000000E+00  1.9090407335E+01
                       0.0000000000E+00  3.8812158402E+00  2.4286405905E+01
                       3.8812158402E+00  0.0000000000E+00  2.9362445643E+01
                       0.0000000000E+00  3.8812158402E+00  3.4558444213E+01
                       3.8812158402E+00  0.0000000000E+00  3.9634483951E+01
                       0.0000000000E+00  3.8812158402E+00  4.4830482521E+01
                       0.0000000000E+00  3.8812158402E+00  8.8783484426E+00
                       3.8812158402E+00  0.0000000000E+00  1.3954388181E+01
                       0.0000000000E+00  3.8812158402E+00  1.9150386751E+01
                       3.8812158402E+00  0.0000000000E+00  2.4226426489E+01
                       0.0000000000E+00  3.8812158402E+00  2.9422425059E+01
                       3.8812158402E+00  0.0000000000E+00  3.4498464797E+01
                       0.0000000000E+00  3.8812158402E+00  3.9694463367E+01
                       3.8812158402E+00  0.0000000000E+00  4.4770503105E+01
             xred      5.0000000000E-01  0.0000000000E+00  1.6437200000E-01
                       0.0000000000E+00  5.0000000000E-01  2.6122400000E-01
                       5.0000000000E-01  0.0000000000E+00  3.5584000000E-01
                       0.0000000000E+00  5.0000000000E-01  4.5269200000E-01
                       5.0000000000E-01  0.0000000000E+00  5.4730800000E-01
                       0.0000000000E+00  5.0000000000E-01  6.4416000000E-01
                       5.0000000000E-01  0.0000000000E+00  7.3877600000E-01
                       0.0000000000E+00  5.0000000000E-01  8.3562800000E-01
                       0.0000000000E+00  5.0000000000E-01  1.6549000000E-01
                       5.0000000000E-01  0.0000000000E+00  2.6010600000E-01
                       0.0000000000E+00  5.0000000000E-01  3.5695800000E-01
                       5.0000000000E-01  0.0000000000E+00  4.5157400000E-01
                       0.0000000000E+00  5.0000000000E-01  5.4842600000E-01
                       5.0000000000E-01  0.0000000000E+00  6.4304200000E-01
                       0.0000000000E+00  5.0000000000E-01  7.3989400000E-01
                       5.0000000000E-01  0.0000000000E+00  8.3451000000E-01
            znucl       50.00000   34.00000

================================================================================

 chkinp: Checking input parameters for consistency.

================================================================================
== DATASET  1 ==================================================================
-   mpi_nproc: 6, omp_nthreads: -1 (-1 if OMP is not activated)


--- !DatasetInfo
iteration_state: {dtset: 1, }
dimensions: {natom: 16, nkpt: 10, mband: 122, nsppol: 1, nspinor: 1, nspden: 1, mpw: 16508, }
cutoff_energies: {ecut:  22.5, pawecutdg:  -1.0, }
electrons: {nelect:   2.40000000E+02, charge:   0.00000000E+00, occopt:   1.00000000E+00, tsmear:   1.00000000E-02, }
meta: {optdriver: 0, ionmov: 0, optcell: 0, iscf: 17, paral_kgb: 0, }
...

 Exchange-correlation functional for the present dataset will be:
  GGA: Perdew-Burke-Ernzerhof functional - ixc=11
 Citation for XC functional:
  J.P.Perdew, K.Burke, M.Ernzerhof, PRL 77, 3865 (1996)

 Real(R)+Recip(G) space primitive vectors, cartesian coordinates (Bohr,Bohr^-1):
 R(1)=  7.7624317  0.0000000  0.0000000  G(1)=  0.1288256  0.0000000  0.0000000
 R(2)=  0.0000000  7.7624317  0.0000000  G(2)=  0.0000000  0.1288256  0.0000000
 R(3)=  0.0000000  0.0000000 53.6488515  G(3)=  0.0000000  0.0000000  0.0186397
 Unit cell volume ucvol=  3.2326301E+03 bohr^3
 Angles (23,13,12)=  9.00000000E+01  9.00000000E+01  9.00000000E+01 degrees

 getcut: wavevector=  0.0000  0.0000  0.0000  ngfft=  36  36 240
         ecut(hartree)=     22.500   => boxcut(ratio)=   2.09505

--- Pseudopotential description ------------------------------------------------
- pspini: atom type   1  psp file is ../../../Psps_for_tests/ATOMICDATA_NC/Sn.psp8
- pspatm: opening atomic psp file    ../../../Psps_for_tests/ATOMICDATA_NC/Sn.psp8
- Sn    ONCVPSP  r_core=  2.27  2.62  1.86
- 50.00000  14.00000    150810                znucl, zion, pspdat
    8   11    2    4       600   0.00000      pspcod,pspxc,lmax,lloc,mmax,r2well
    5.99000000000000    6.50000000000000    0.00000000000000   rchrg,fchrg,qchrg
     nproj     2     2     2
     extension_switch     1
  pspatm : epsatm=   32.65190642
         --- l  ekb(1:nproj) -->
             0    5.462393    0.682281
             1    4.443814    0.825686
             2   -5.382195   -1.704077
 pspatm: atomic psp has been read  and splines computed

- pspini: atom type   2  psp file is ../../../Psps_for_tests/ATOMICDATA_NC/Se.psp8
- pspatm: opening atomic psp file    ../../../Psps_for_tests/ATOMICDATA_NC/Se.psp8
- Se    ONCVPSP  r_core=  1.82  1.50  1.91
- 34.00000  16.00000    150729                znucl, zion, pspdat
    8   11    2    4       600   0.00000      pspcod,pspxc,lmax,lloc,mmax,r2well
    5.99000000000000    5.00000000000000    0.00000000000000   rchrg,fchrg,qchrg
     nproj     2     2     2
     extension_switch     1
  pspatm : epsatm=   29.53325930
         --- l  ekb(1:nproj) -->
             0    8.612261    0.939919
             1    6.984962    1.281898
             2   -9.322521   -3.856218
 pspatm: atomic psp has been read  and splines computed

   1.19395518E+05                                ecore*ucvol(ha*bohr**3)
--------------------------------------------------------------------------------

_setup2: Arith. and geom. avg. npw (full set) are   16477.375   16477.367

================================================================================

--- !BeginCycle
iteration_state: {dtset: 1, }
solver: {iscf: 17, nstep: 150, nline: 4, wfoptalg: 0, }
tolerances: {toldfe: 1.00E-06, }
...

     iter   Etot(hartree)      deltaE(h)  residm     nres2
 ETOT  1  -1565.0111880538    -1.565E+03 8.568E-01 3.363E+02
 ETOT  2  -1593.7389871787    -2.873E+01 4.494E-02 2.194E+02
 ETOT  3  -1591.9127805692     1.826E+00 2.089E-01 2.735E+01
 ETOT  4  -1593.4950520874    -1.582E+00 2.685E-01 4.443E+01
 ETOT  5  -1590.9175467996     2.578E+00 7.413E-02 3.500E+00
 ETOT  6  -1591.4768907277    -5.593E-01 2.726E-02 2.123E+00
 ETOT  7  -1591.5658540216    -8.896E-02 7.985E-03 1.656E+00
 ETOT  8  -1591.5754441635    -9.590E-03 1.719E-03 2.269E+00
 ETOT  9  -1591.5531889761     2.226E-02 1.445E-03 5.977E-01
 ETOT 10  -1591.5352326703     1.796E-02 5.940E-04 1.262E-01
 ETOT 11  -1591.5277620054     7.471E-03 1.160E-03 4.230E-02
 ETOT 12  -1591.5260820748     1.680E-03 4.341E-03 2.095E-02
 ETOT 13  -1591.5252319367     8.501E-04 6.322E-04 1.057E-02
 ETOT 14  -1591.5247402181     4.917E-04 3.700E-04 3.607E-03
 ETOT 15  -1591.5246355587     1.047E-04 1.463E-04 1.218E-03
 ETOT 16  -1591.5245975246     3.803E-05 9.790E-05 6.157E-04
 ETOT 17  -1591.5246302970    -3.277E-05 9.943E-05 2.288E-04
 ETOT 18  -1591.5246845839    -5.429E-05 7.251E-05 6.291E-05
 ETOT 19  -1591.5247329844    -4.840E-05 7.975E-05 7.945E-06
 ETOT 20  -1591.5247418635    -8.879E-06 5.410E-05 1.378E-06
 ETOT 21  -1591.5247427629    -8.994E-07 5.555E-05 1.071E-07
 ETOT 22  -1591.5247428148    -5.192E-08 3.597E-05 9.733E-09

 At SCF step   22, etot is converged : 
  for the second time, diff in etot=  5.192E-08 < toldfe=  1.000E-06

 Cartesian components of stress tensor (hartree/bohr^3)
  sigma(1 1)=  1.41639835E-02  sigma(3 2)=  0.00000000E+00
  sigma(2 2)=  1.41639835E-02  sigma(3 1)=  0.00000000E+00
  sigma(3 3)=  1.38518556E-02  sigma(2 1)=  0.00000000E+00


--- !ResultsGS
iteration_state: {dtset: 1, }
comment   : Summary of ground state results
lattice_vectors:
- [  7.7624317,   0.0000000,   0.0000000, ]
- [  0.0000000,   7.7624317,   0.0000000, ]
- [  0.0000000,   0.0000000,  53.6488515, ]
lattice_lengths: [   7.76243,    7.76243,   53.64885, ]
lattice_angles: [ 90.000,  90.000,  90.000, ] # degrees, (23, 13, 12)
lattice_volume:   3.2326301E+03
convergence: {deltae: -5.192E-08, res2:  9.733E-09, residm:  3.597E-05, diffor: null, }
etotal    :  -1.59152474E+03
entropy   :   0.00000000E+00
fermie    :   1.59507725E-01
cartesian_stress_tensor: # hartree/bohr^3
- [  1.41639835E-02,   0.00000000E+00,   0.00000000E+00, ]
- [  0.00000000E+00,   1.41639835E-02,   0.00000000E+00, ]
- [  0.00000000E+00,   0.00000000E+00,   1.38518556E-02, ]
pressure_GPa:  -4.1366E+02
xred      :
- [  5.0000E-01,   0.0000E+00,   1.6437E-01, Sn]
- [  0.0000E+00,   5.0000E-01,   2.6122E-01, Sn]
- [  5.0000E-01,   0.0000E+00,   3.5584E-01, Sn]
- [  0.0000E+00,   5.0000E-01,   4.5269E-01, Sn]
- [  5.0000E-01,   0.0000E+00,   5.4731E-01, Sn]
- [  0.0000E+00,   5.0000E-01,   6.4416E-01, Sn]
- [  5.0000E-01,   0.0000E+00,   7.3878E-01, Sn]
- [  0.0000E+00,   5.0000E-01,   8.3563E-01, Sn]
- [  0.0000E+00,   5.0000E-01,   1.6549E-01, Se]
- [  5.0000E-01,   0.0000E+00,   2.6011E-01, Se]
- [  0.0000E+00,   5.0000E-01,   3.5696E-01, Se]
- [  5.0000E-01,   0.0000E+00,   4.5157E-01, Se]
- [  0.0000E+00,   5.0000E-01,   5.4843E-01, Se]
- [  5.0000E-01,   0.0000E+00,   6.4304E-01, Se]
- [  0.0000E+00,   5.0000E-01,   7.3989E-01, Se]
- [  5.0000E-01,   0.0000E+00,   8.3451E-01, Se]
cartesian_forces: # hartree/bohr
- [ -2.54063719E-32,   8.89223017E-32,  -1.31125747E-02, ]
- [ -2.54063719E-32,   8.89223017E-32,  -1.28847978E-02, ]
- [ -1.04166125E-30,  -1.53708550E-30,   3.69206152E-03, ]
- [ -2.54063719E-32,   8.89223017E-32,  -2.00844497E-03, ]
- [  9.90848505E-31,   1.71493010E-30,   2.00844497E-03, ]
- [ -2.54063719E-32,   8.89223017E-32,  -3.69206152E-03, ]
- [ -2.54063719E-32,   8.89223017E-32,   1.28847978E-02, ]
- [ -2.54063719E-32,  -7.24081600E-31,   1.31125747E-02, ]
- [ -2.54063719E-32,   8.89223017E-32,  -1.52898149E-02, ]
- [  7.87597530E-31,   9.01926203E-31,  -9.10551146E-03, ]
- [  1.60060143E-30,   1.10517718E-30,   8.20859800E-04, ]
- [ -4.31908323E-31,  -7.24081600E-31,   1.03948787E-03, ]
- [ -2.54063719E-32,   4.95424253E-31,  -1.03948787E-03, ]
- [ -4.31908323E-31,   8.89223017E-32,  -8.20859800E-04, ]
- [ -1.65141418E-30,  -1.94358745E-30,   9.10551146E-03, ]
- [  3.81095579E-31,   8.89223017E-32,   1.52898149E-02, ]
force_length_stats: {min:   8.20859800E-04, max:   1.52898149E-02, mean:   7.24419412E-03, }
...

 Integrated electronic density in atomic spheres:
 ------------------------------------------------
 Atom  Sphere_radius  Integrated_density
    1        2.00000         10.54206061
    2        2.00000         10.58119017
    3        2.00000         10.58185839
    4        2.00000         10.58124767
    5        2.00000         10.58124767
    6        2.00000         10.58185839
    7        2.00000         10.58119017
    8        2.00000         10.54206061
    9        2.00000         13.30595628
   10        2.00000         13.30737877
   11        2.00000         13.33398751
   12        2.00000         13.32588715
   13        2.00000         13.32588715
   14        2.00000         13.33398751
   15        2.00000         13.30737877
   16        2.00000         13.30595628
================================================================================

 ----iterations are completed or convergence reached----

 Mean square residual over all n,k,spin=   75.350E-09; max=  35.973E-06
 reduced coordinates (array xred) for   16 atoms
       0.500000000000      0.000000000000      0.164372000000
       0.000000000000      0.500000000000      0.261224000000
       0.500000000000      0.000000000000      0.355840000000
       0.000000000000      0.500000000000      0.452692000000
       0.500000000000      0.000000000000      0.547308000000
       0.000000000000      0.500000000000      0.644160000000
       0.500000000000      0.000000000000      0.738776000000
       0.000000000000      0.500000000000      0.835628000000
       0.000000000000      0.500000000000      0.165490000000
       0.500000000000      0.000000000000      0.260106000000
       0.000000000000      0.500000000000      0.356958000000
       0.500000000000      0.000000000000      0.451574000000
       0.000000000000      0.500000000000      0.548426000000
       0.500000000000      0.000000000000      0.643042000000
       0.000000000000      0.500000000000      0.739894000000
       0.500000000000      0.000000000000      0.834510000000
 rms dE/dt=  2.8432E-01; max dE/dt=  8.2028E-01; dE/dt below (all hartree)
    1       0.000000000000      0.000000000000      0.703474575660
    2       0.000000000000      0.000000000000      0.691254602855
    3       0.000000000000      0.000000000000     -0.198074860282
    4       0.000000000000      0.000000000000      0.107750765833
    5      -0.000000000000     -0.000000000000     -0.107750765833
    6       0.000000000000      0.000000000000      0.198074860282
    7       0.000000000000      0.000000000000     -0.691254602855
    8       0.000000000000      0.000000000000     -0.703474575660
    9       0.000000000000      0.000000000000      0.820281007727
   10      -0.000000000000     -0.000000000000      0.488500232384
   11      -0.000000000000     -0.000000000000     -0.044038185577
   12       0.000000000000      0.000000000000     -0.055767330423
   13       0.000000000000     -0.000000000000      0.055767330423
   14       0.000000000000      0.000000000000      0.044038185577
   15       0.000000000000      0.000000000000     -0.488500232384
   16      -0.000000000000      0.000000000000     -0.820281007727

 cartesian coordinates (angstrom) at end:
    1      2.05385096425820     0.00000000000000     4.66647990579236
    2      0.00000000000000     2.05385096425820     7.41608392494284
    3      2.05385096425820     0.00000000000000    10.10220846419800
    4      0.00000000000000     2.05385096425820    12.85181248334848
    5      2.05385096425820     0.00000000000000    15.53793702260364
    6      0.00000000000000     2.05385096425820    18.28754104175411
    7      2.05385096425820     0.00000000000000    20.97366558100928
    8      0.00000000000000     2.05385096425820    23.72326960015976
    9      0.00000000000000     2.05385096425820     4.69821964574002
   10      2.05385096425820     0.00000000000000     7.38434418499518
   11      0.00000000000000     2.05385096425820    10.13394820414566
   12      2.05385096425820     0.00000000000000    12.82007274340082
   13      0.00000000000000     2.05385096425820    15.56967676255129
   14      2.05385096425820     0.00000000000000    18.25580130180646
   15      0.00000000000000     2.05385096425820    21.00540532095694
   16      2.05385096425820     0.00000000000000    23.69152986021210

 cartesian forces (hartree/bohr) at end:
    1     -0.00000000000000     0.00000000000000    -0.01311257474052
    2     -0.00000000000000     0.00000000000000    -0.01288479777137
    3     -0.00000000000000    -0.00000000000000     0.00369206151798
    4     -0.00000000000000     0.00000000000000    -0.00200844496621
    5      0.00000000000000     0.00000000000000     0.00200844496621
    6     -0.00000000000000     0.00000000000000    -0.00369206151798
    7     -0.00000000000000     0.00000000000000     0.01288479777137
    8     -0.00000000000000    -0.00000000000000     0.01311257474052
    9     -0.00000000000000     0.00000000000000    -0.01528981486213
   10      0.00000000000000     0.00000000000000    -0.00910551145631
   11      0.00000000000000     0.00000000000000     0.00082085980047
   12     -0.00000000000000    -0.00000000000000     0.00103948787000
   13     -0.00000000000000     0.00000000000000    -0.00103948787000
   14     -0.00000000000000     0.00000000000000    -0.00082085980047
   15     -0.00000000000000    -0.00000000000000     0.00910551145631
   16      0.00000000000000     0.00000000000000     0.01528981486213
 frms,max,avg= 5.2996302E-03 1.5289815E-02   0.000E+00  0.000E+00  0.000E+00 h/b

 cartesian forces (eV/Angstrom) at end:
    1     -0.00000000000000     0.00000000000000    -0.67427564691998
    2     -0.00000000000000     0.00000000000000    -0.66256288521819
    3     -0.00000000000000    -0.00000000000000     0.18985342068732
    4     -0.00000000000000     0.00000000000000    -0.10327838397049
    5      0.00000000000000     0.00000000000000     0.10327838397049
    6     -0.00000000000000     0.00000000000000    -0.18985342068732
    7     -0.00000000000000     0.00000000000000     0.66256288521819
    8     -0.00000000000000    -0.00000000000000     0.67427564691998
    9     -0.00000000000000     0.00000000000000    -0.78623382603793
   10      0.00000000000000     0.00000000000000    -0.46822418550406
   11      0.00000000000000     0.00000000000000     0.04221030453166
   12     -0.00000000000000    -0.00000000000000     0.05345261093873
   13     -0.00000000000000     0.00000000000000    -0.05345261093873
   14     -0.00000000000000     0.00000000000000    -0.04221030453166
   15     -0.00000000000000    -0.00000000000000     0.46822418550406
   16      0.00000000000000     0.00000000000000     0.78623382603793
 frms,max,avg= 2.7251792E-01 7.8623383E-01   0.000E+00  0.000E+00  0.000E+00 e/A
 length scales=  7.762431680422  7.762431680422  7.762431680422 bohr
              =  4.107701928516  4.107701928516  4.107701928516 angstroms
 prteigrs : about to open file Cs2TiI6o_EIG
 Fermi (or HOMO) energy (hartree) =   0.15951   Average Vxc (hartree)=  -0.32561
 Eigenvalues (hartree) for nkpt=  10  k points:
 kpt#   1, nband=122, wtk=  0.06250, kpt=  0.0625  0.0625  0.5000 (reduced coord)
  -1.66077   -1.65954   -1.65882   -1.65748   -1.65745   -1.65676   -1.65650   -1.65590
  -1.65513   -1.65497   -1.65397   -1.65352   -1.65342   -1.65340   -1.65277   -1.65272
  -1.65227   -1.65220   -1.65212   -1.65132   -1.65098   -1.65035   -1.64984   -1.64910
  -1.64893   -1.64833   -1.64798   -1.64483   -1.64255   -1.64247   -1.63102   -1.63012
  -1.62996   -1.62969   -1.62895   -1.62665   -1.62632   -1.62566   -1.62527   -1.62490
  -0.65296   -0.65271   -0.65130   -0.65107   -0.65103   -0.65103   -0.65056   -0.65029
  -0.65000   -0.65000   -0.64988   -0.64919   -0.64905   -0.64899   -0.64863   -0.64843
  -0.64789   -0.64781   -0.64733   -0.64711   -0.64507   -0.64484   -0.64401   -0.64393
  -0.64384   -0.64384   -0.64343   -0.64284   -0.64257   -0.64255   -0.64239   -0.64226
  -0.64216   -0.64213   -0.64200   -0.64185   -0.64161   -0.64158   -0.64151   -0.64124
  -0.40778   -0.40103   -0.39078   -0.37849   -0.36343   -0.34921   -0.33632   -0.33471
  -0.12540   -0.12483   -0.11246   -0.10691   -0.08854   -0.08329   -0.06265   -0.05358
  -0.03225   -0.02844   -0.02082   -0.01266   -0.00094   -0.00058    0.00340    0.01321
   0.01486    0.02442    0.02893    0.03244    0.04246    0.04396    0.04688    0.05514
   0.05559    0.05874    0.07144    0.07724    0.08199    0.09673    0.12767    0.13359
   0.21984    0.22083
 prteigrs : prtvol=0 or 1, do not print more k-points.


--- !EnergyTerms
iteration_state     : {dtset: 1, }
comment             : Components of total free energy in Hartree
kinetic             :  9.72775739555614E+02
hartree             :  1.90057116220550E+03
xc                  : -3.67002721665269E+02
Ewald energy        :  5.94046025042154E+02
psp_core            :  3.69344820919736E+01
local_psp           : -4.15511994388783E+03
non_local_psp       : -5.73503507334573E+02
VdWaals_dft_d       : -2.25983389588033E-01
total_energy        : -1.59152474738201E+03
...


--- !EnergyTermsDC
iteration_state     : {dtset: 1, }
comment             : '"Double-counting" decomposition of free energy'
band_energy         : -1.89119197830657E+02
Ewald energy        :  5.94046025042154E+02
psp_core            :  3.69344820919736E+01
xc_dc               : -2.03316006872866E+03
VdWaals_dft_d       : -2.25983389588033E-01
total_energy_dc     : -1.59152474281478E+03
...


 Cartesian components of stress tensor (hartree/bohr^3)
  sigma(1 1)=  1.41639835E-02  sigma(3 2)=  0.00000000E+00
  sigma(2 2)=  1.41639835E-02  sigma(3 1)=  0.00000000E+00
  sigma(3 3)=  1.38518556E-02  sigma(2 1)=  0.00000000E+00

-Cartesian components of stress tensor (GPa)         [Pressure= -4.1366E+02 GPa]
- sigma(1 1)=  4.16718712E+02  sigma(3 2)=  0.00000000E+00
- sigma(2 2)=  4.16718712E+02  sigma(3 1)=  0.00000000E+00
- sigma(3 3)=  4.07535595E+02  sigma(2 1)=  0.00000000E+00

== END DATASET(S) ==============================================================
================================================================================
  
 -outvars: echo values of variables after computation  --------
            acell      7.7624316804E+00  7.7624316804E+00  7.7624316804E+00 Bohr
              amu      1.18710000E+02  7.89600000E+01
           diemac      1.20000000E+01
             ecut      2.25000000E+01 Hartree
           etotal     -1.5915247428E+03
            fcart     -2.5406371924E-32  8.8922301733E-32 -1.3112574741E-02
                      -2.5406371924E-32  8.8922301733E-32 -1.2884797771E-02
                      -1.0416612489E-30 -1.5370855014E-30  3.6920615180E-03
                      -2.5406371924E-32  8.8922301733E-32 -2.0084449662E-03
                       9.9084850502E-31  1.7149301049E-30  2.0084449662E-03
                      -2.5406371924E-32  8.8922301733E-32 -3.6920615180E-03
                      -2.5406371924E-32  8.8922301733E-32  1.2884797771E-02
                      -2.5406371924E-32 -7.2408159983E-31  1.3112574741E-02
                      -2.5406371924E-32  8.8922301733E-32 -1.5289814862E-02
                       7.8759752964E-31  9.0192620329E-31 -9.1055114563E-03
                       1.6006014312E-30  1.1051771787E-30  8.2085980047E-04
                      -4.3190832270E-31 -7.2408159983E-31  1.0394878700E-03
                      -2.5406371924E-32  4.9542425251E-31 -1.0394878700E-03
                      -4.3190832270E-31  8.8922301733E-32 -8.2085980047E-04
                      -1.6514141750E-30 -1.9435874522E-30  9.1055114563E-03
                       3.8109557886E-31  8.8922301733E-32  1.5289814862E-02
-          fftalg         112
             iscf          17
              ixc          11
              kpt      6.25000000E-02  6.25000000E-02  5.00000000E-01
                       1.87500000E-01  6.25000000E-02  5.00000000E-01
                       3.12500000E-01  6.25000000E-02  5.00000000E-01
                       4.37500000E-01  6.25000000E-02  5.00000000E-01
                       1.87500000E-01  1.87500000E-01  5.00000000E-01
                       3.12500000E-01  1.87500000E-01  5.00000000E-01
                       4.37500000E-01  1.87500000E-01  5.00000000E-01
                       3.12500000E-01  3.12500000E-01  5.00000000E-01
                       4.37500000E-01  3.12500000E-01  5.00000000E-01
                       4.37500000E-01  4.37500000E-01  5.00000000E-01
         kptrlatt        8    0    0      0    8    0      0    0    1
          kptrlen      6.20994534E+01
P           mkmem           2
            natom          16
            nband         122
            ngfft          36      36     240
             nkpt          10
            nstep         150
             nsym          16
           ntypat           2
              occ      2.000000  2.000000  2.000000  2.000000  2.000000  2.000000
                       2.000000  2.000000  2.000000  2.000000  2.000000  2.000000
                       2.000000  2.000000  2.000000  2.000000  2.000000  2.000000
                       2.000000  2.000000  2.000000  2.000000  2.000000  2.000000
                       2.000000  2.000000  2.000000  2.000000  2.000000  2.000000
                       2.000000  2.000000  2.000000  2.000000  2.000000  2.000000
                       2.000000  2.000000  2.000000  2.000000  2.000000  2.000000
                       2.000000  2.000000  2.000000  2.000000  2.000000  2.000000
                       2.000000  2.000000  2.000000  2.000000  2.000000  2.000000
                       2.000000  2.000000  2.000000  2.000000  2.000000  2.000000
                       2.000000  2.000000  2.000000  2.000000  2.000000  2.000000
                       2.000000  2.000000  2.000000  2.000000  2.000000  2.000000
                       2.000000  2.000000  2.000000  2.000000  2.000000  2.000000
                       2.000000  2.000000  2.000000  2.000000  2.000000  2.000000
                       2.000000  2.000000  2.000000  2.000000  2.000000  2.000000
                       2.000000  2.000000  2.000000  2.000000  2.000000  2.000000
                       2.000000  2.000000  2.000000  2.000000  2.000000  2.000000
                       2.000000  2.000000  2.000000  2.000000  2.000000  2.000000
                       2.000000  2.000000  2.000000  2.000000  2.000000  2.000000
                       2.000000  2.000000  2.000000  2.000000  2.000000  2.000000
                       0.000000  0.000000
           prtcif           1
            rprim      1.0000000000E+00  0.0000000000E+00  0.0000000000E+00
                       0.0000000000E+00  1.0000000000E+00  0.0000000000E+00
                       0.0000000000E+00  0.0000000000E+00  6.9113460519E+00
           shiftk      5.00000000E-01  5.00000000E-01  5.00000000E-01
          spgroup         129
           strten      1.4163983498E-02  1.4163983498E-02  1.3851855643E-02
                       0.0000000000E+00  0.0000000000E+00  0.0000000000E+00
           symrel      1  0  0   0  1  0   0  0  1      -1  0  0   0 -1  0   0  0 -1
                      -1  0  0   0  1  0   0  0 -1       1  0  0   0 -1  0   0  0  1
                      -1  0  0   0 -1  0   0  0  1       1  0  0   0  1  0   0  0 -1
                       1  0  0   0 -1  0   0  0 -1      -1  0  0   0  1  0   0  0  1
                       0  1  0   1  0  0   0  0  1       0 -1  0  -1  0  0   0  0 -1
                       0 -1  0   1  0  0   0  0 -1       0  1  0  -1  0  0   0  0  1
                       0 -1  0  -1  0  0   0  0  1       0  1  0   1  0  0   0  0 -1
                       0  1  0  -1  0  0   0  0 -1       0 -1  0   1  0  0   0  0  1
            tnons      0.0000000  0.0000000  0.0000000     0.5000000  0.5000000 -0.0000000
                       0.5000000  0.5000000 -0.0000000     0.0000000  0.0000000  0.0000000
                      -0.0000000  0.0000000  0.0000000     0.5000000  0.5000000 -0.0000000
                       0.5000000  0.5000000 -0.0000000    -0.0000000  0.0000000  0.0000000
                       0.5000000  0.5000000  0.0000000     0.0000000 -0.0000000 -0.0000000
                       0.0000000 -0.0000000 -0.0000000     0.5000000  0.5000000  0.0000000
                       0.5000000  0.5000000  0.0000000     0.0000000  0.0000000 -0.0000000
                       0.0000000  0.0000000 -0.0000000     0.5000000  0.5000000  0.0000000
           toldfe      1.00000000E-06 Hartree
            typat      1  1  1  1  1  1  1  1  2  2  2  2  2  2  2  2
           vdw_xc           5
              wtk        0.06250    0.12500    0.12500    0.12500    0.06250    0.12500
                         0.12500    0.06250    0.12500    0.06250
           xangst      2.0538509643E+00  0.0000000000E+00  4.6664799058E+00
                       0.0000000000E+00  2.0538509643E+00  7.4160839249E+00
                       2.0538509643E+00  0.0000000000E+00  1.0102208464E+01
                       0.0000000000E+00  2.0538509643E+00  1.2851812483E+01
                       2.0538509643E+00  0.0000000000E+00  1.5537937023E+01
                       0.0000000000E+00  2.0538509643E+00  1.8287541042E+01
                       2.0538509643E+00  0.0000000000E+00  2.0973665581E+01
                       0.0000000000E+00  2.0538509643E+00  2.3723269600E+01
                       0.0000000000E+00  2.0538509643E+00  4.6982196457E+00
                       2.0538509643E+00  0.0000000000E+00  7.3843441850E+00
                       0.0000000000E+00  2.0538509643E+00  1.0133948204E+01
                       2.0538509643E+00  0.0000000000E+00  1.2820072743E+01
                       0.0000000000E+00  2.0538509643E+00  1.5569676763E+01
                       2.0538509643E+00  0.0000000000E+00  1.8255801302E+01
                       0.0000000000E+00  2.0538509643E+00  2.1005405321E+01
                       2.0538509643E+00  0.0000000000E+00  2.3691529860E+01
            xcart      3.8812158402E+00  0.0000000000E+00  8.8183690266E+00
                       0.0000000000E+00  3.8812158402E+00  1.4014367597E+01
                       3.8812158402E+00  0.0000000000E+00  1.9090407335E+01
                       0.0000000000E+00  3.8812158402E+00  2.4286405905E+01
                       3.8812158402E+00  0.0000000000E+00  2.9362445643E+01
                       0.0000000000E+00  3.8812158402E+00  3.4558444213E+01
                       3.8812158402E+00  0.0000000000E+00  3.9634483951E+01
                       0.0000000000E+00  3.8812158402E+00  4.4830482521E+01
                       0.0000000000E+00  3.8812158402E+00  8.8783484426E+00
                       3.8812158402E+00  0.0000000000E+00  1.3954388181E+01
                       0.0000000000E+00  3.8812158402E+00  1.9150386751E+01
                       3.8812158402E+00  0.0000000000E+00  2.4226426489E+01
                       0.0000000000E+00  3.8812158402E+00  2.9422425059E+01
                       3.8812158402E+00  0.0000000000E+00  3.4498464797E+01
                       0.0000000000E+00  3.8812158402E+00  3.9694463367E+01
                       3.8812158402E+00  0.0000000000E+00  4.4770503105E+01
             xred      5.0000000000E-01  0.0000000000E+00  1.6437200000E-01
                       0.0000000000E+00  5.0000000000E-01  2.6122400000E-01
                       5.0000000000E-01  0.0000000000E+00  3.5584000000E-01
                       0.0000000000E+00  5.0000000000E-01  4.5269200000E-01
                       5.0000000000E-01  0.0000000000E+00  5.4730800000E-01
                       0.0000000000E+00  5.0000000000E-01  6.4416000000E-01
                       5.0000000000E-01  0.0000000000E+00  7.3877600000E-01
                       0.0000000000E+00  5.0000000000E-01  8.3562800000E-01
                       0.0000000000E+00  5.0000000000E-01  1.6549000000E-01
                       5.0000000000E-01  0.0000000000E+00  2.6010600000E-01
                       0.0000000000E+00  5.0000000000E-01  3.5695800000E-01
                       5.0000000000E-01  0.0000000000E+00  4.5157400000E-01
                       0.0000000000E+00  5.0000000000E-01  5.4842600000E-01
                       5.0000000000E-01  0.0000000000E+00  6.4304200000E-01
                       0.0000000000E+00  5.0000000000E-01  7.3989400000E-01
                       5.0000000000E-01  0.0000000000E+00  8.3451000000E-01
            znucl       50.00000   34.00000

================================================================================


- Timing analysis has been suppressed with timopt=0



================================================================================

 Suggested references for the acknowledgment of ABINIT usage.

 The users of ABINIT have little formal obligations with respect to the ABINIT group
 (those specified in the GNU General Public License, http://www.gnu.org/copyleft/gpl.txt).
 However, it is common practice in the scientific literature,
 to acknowledge the efforts of people that have made the research possible.
 In this spirit, please find below suggested citations of work written by ABINIT developers,
 corresponding to implementations inside of ABINIT that you have used in the present run.
 Note also that it will be of great value to readers of publications presenting these results,
 to read papers enabling them to understand the theoretical formalism and details
 of the ABINIT implementation.
 For information on why they are suggested, see also https://docs.abinit.org/theory/acknowledgments.
-
- [1] The Abinit project: Impact, environment and recent developments.
- Computer Phys. Comm. 248, 107042 (2020).
- X.Gonze, B. Amadon, G. Antonius, F.Arnardi, L.Baguet, J.-M.Beuken,
- J.Bieder, F.Bottin, J.Bouchet, E.Bousquet, N.Brouwer, F.Bruneval,
- G.Brunin, T.Cavignac, J.-B. Charraud, Wei Chen, M.Cote, S.Cottenier,
- J.Denier, G.Geneste, Ph.Ghosez, M.Giantomassi, Y.Gillet, O.Gingras,
- D.R.Hamann, G.Hautier, Xu He, N.Helbig, N.Holzwarth, Y.Jia, F.Jollet,
- W.Lafargue-Dit-Hauret, K.Lejaeghere, M.A.L.Marques, A.Martin, C.Martins,
- H.P.C. Miranda, F.Naccarato, K. Persson, G.Petretto, V.Planes, Y.Pouillon,
- S.Prokhorenko, F.Ricci, G.-M.Rignanese, A.H.Romero, M.M.Schmitt, M.Torrent,
- M.J.van Setten, B.Van Troeye, M.J.Verstraete, G.Zerah and J.W.Zwanzig
- Comment: the fifth generic paper describing the ABINIT project.
- Note that a version of this paper, that is not formatted for Computer Phys. Comm. 
- is available at https://www.abinit.org/sites/default/files/ABINIT20.pdf .
- The licence allows the authors to put it on the Web.
- DOI and bibtex: see https://docs.abinit.org/theory/bibliography/#gonze2020
-
- [2] Optimized norm-conserving Vanderbilt pseudopotentials.
- D.R. Hamann, Phys. Rev. B 88, 085117 (2013).
- Comment: Some pseudopotential generated using the ONCVPSP code were used.
- DOI and bibtex: see https://docs.abinit.org/theory/bibliography/#hamann2013
-
- [3] ABINIT: Overview, and focus on selected capabilities
- J. Chem. Phys. 152, 124102 (2020).
- A. Romero, D.C. Allan, B. Amadon, G. Antonius, T. Applencourt, L.Baguet,
- J.Bieder, F.Bottin, J.Bouchet, E.Bousquet, F.Bruneval,
- G.Brunin, D.Caliste, M.Cote,
- J.Denier, C. Dreyer, Ph.Ghosez, M.Giantomassi, Y.Gillet, O.Gingras,
- D.R.Hamann, G.Hautier, F.Jollet, G. Jomard,
- A.Martin, 
- H.P.C. Miranda, F.Naccarato, G.Petretto, N.A. Pike, V.Planes,
- S.Prokhorenko, T. Rangel, F.Ricci, G.-M.Rignanese, M.Royo, M.Stengel, M.Torrent,
- M.J.van Setten, B.Van Troeye, M.J.Verstraete, J.Wiktor, J.W.Zwanziger, and X.Gonze.
- Comment: a global overview of ABINIT, with focus on selected capabilities .
- Note that a version of this paper, that is not formatted for J. Chem. Phys 
- is available at https://www.abinit.org/sites/default/files/ABINIT20_JPC.pdf .
- The licence allows the authors to put it on the Web.
- DOI and bibtex: see https://docs.abinit.org/theory/bibliography/#romero2020
-
- [4] Recent developments in the ABINIT software package.
- Computer Phys. Comm. 205, 106 (2016).
- X.Gonze, F.Jollet, F.Abreu Araujo, D.Adams, B.Amadon, T.Applencourt,
- C.Audouze, J.-M.Beuken, J.Bieder, A.Bokhanchuk, E.Bousquet, F.Bruneval
- D.Caliste, M.Cote, F.Dahm, F.Da Pieve, M.Delaveau, M.Di Gennaro,
- B.Dorado, C.Espejo, G.Geneste, L.Genovese, A.Gerossier, M.Giantomassi,
- Y.Gillet, D.R.Hamann, L.He, G.Jomard, J.Laflamme Janssen, S.Le Roux,
- A.Levitt, A.Lherbier, F.Liu, I.Lukacevic, A.Martin, C.Martins,
- M.J.T.Oliveira, S.Ponce, Y.Pouillon, T.Rangel, G.-M.Rignanese,
- A.H.Romero, B.Rousseau, O.Rubel, A.A.Shukri, M.Stankovski, M.Torrent,
- M.J.Van Setten, B.Van Troeye, M.J.Verstraete, D.Waroquier, J.Wiktor,
- B.Xu, A.Zhou, J.W.Zwanziger.
- Comment: the fourth generic paper describing the ABINIT project.
- Note that a version of this paper, that is not formatted for Computer Phys. Comm. 
- is available at https://www.abinit.org/sites/default/files/ABINIT16.pdf .
- The licence allows the authors to put it on the Web.
- DOI and bibtex: see https://docs.abinit.org/theory/bibliography/#gonze2016
-
- And optionally:
-
- [5] ABINIT: First-principles approach of materials and nanosystem properties.
- Computer Phys. Comm. 180, 2582-2615 (2009).
- X. Gonze, B. Amadon, P.-M. Anglade, J.-M. Beuken, F. Bottin, P. Boulanger, F. Bruneval,
- D. Caliste, R. Caracas, M. Cote, T. Deutsch, L. Genovese, Ph. Ghosez, M. Giantomassi
- S. Goedecker, D.R. Hamann, P. Hermet, F. Jollet, G. Jomard, S. Leroux, M. Mancini, S. Mazevet,
- M.J.T. Oliveira, G. Onida, Y. Pouillon, T. Rangel, G.-M. Rignanese, D. Sangalli, R. Shaltaf,
- M. Torrent, M.J. Verstraete, G. Zerah, J.W. Zwanziger
- Comment: the third generic paper describing the ABINIT project.
- Note that a version of this paper, that is not formatted for Computer Phys. Comm. 
- is available at https://www.abinit.org/sites/default/files/ABINIT_CPC_v10.pdf .
- The licence allows the authors to put it on the Web.
- DOI and bibtex: see https://docs.abinit.org/theory/bibliography/#gonze2009
-
- Proc.   0 individual time (sec): cpu=       1308.3  wall=       1308.4

================================================================================

 Calculation completed.
.Delivered   0 WARNINGs and   0 COMMENTs to log file.
+Overall time at end (sec) : cpu=       7850.0  wall=       7850.3
