
.Version 9.2.2 of ABINIT 
.(MPI version, prepared for a x86_64_linux_gnu9.3 computer) 

.Copyright (C) 1998-2020 ABINIT group . 
 ABINIT comes with ABSOLUTELY NO WARRANTY.
 It is free software, and you are welcome to redistribute it
 under certain conditions (GNU General Public License,
 see ~abinit/COPYING or http://www.gnu.org/copyleft/gpl.txt).

 ABINIT is a project of the Universite Catholique de Louvain,
 Corning Inc. and other collaborators, see ~abinit/doc/developers/contributors.txt .
 Please read https://docs.abinit.org/theory/acknowledgments for suggested
 acknowledgments of the ABINIT effort.
 For more information, see https://www.abinit.org .

.Starting date : Sat 24 Feb 2024.
- ( at 23h57 )
  
- The starting date is more than 3 years after the initial release
- of this version of ABINIT, namely Nov 2020.
- This version of ABINIT is not supported anymore.
- Action: please, switch to a more recent version of ABINIT.
- input  file    -> Cs2TiI6.in
- output file    -> Cs2TiI6.out
- root for input  files -> Cs2TiI6i
- root for output files -> Cs2TiI6o


 DATASET    1 : space group P4/n m m (#129); Bravais tP (primitive tetrag.)
================================================================================
 Values of the parameters that define the memory need for DATASET  1.
     intxc =       0    ionmov =       0      iscf =      17    lmnmax =       6
     lnmax =       6     mgfft =     144  mpssoang =       3    mqgrid =    7069
     natom =       8  nloc_mem =       1    nspden =       1   nspinor =       1
    nsppol =       1      nsym =      16    n1xccc =    2501    ntypat =       2
    occopt =       1   xclevel =       2
-    mband =          68        mffmem =           1         mkmem =          11
       mpw =       10206          nfft =      186624          nkpt =          42
================================================================================
P This job should need less than                     184.297 Mbytes of memory.
  Rough estimation (10% accuracy) of disk space for files :
_ WF disk file :    444.770 Mbytes ; DEN or POT disk file :      1.426 Mbytes.
================================================================================


 DATASET    2 : space group P4/n m m (#129); Bravais tP (primitive tetrag.)
================================================================================
 Values of the parameters that define the memory need for DATASET  2.
     intxc =       0    ionmov =       0      iscf =      -2    lmnmax =       6
     lnmax =       6     mgfft =     144  mpssoang =       3    mqgrid =    7069
     natom =       8  nloc_mem =       1    nspden =       1   nspinor =       1
    nsppol =       1      nsym =      16    n1xccc =    2501    ntypat =       2
    occopt =       1   xclevel =       2
-    mband =          68        mffmem =           1         mkmem =          15
       mpw =       10230          nfft =      186624          nkpt =          57
================================================================================
P This job should need less than                     199.047 Mbytes of memory.
  Rough estimation (10% accuracy) of disk space for files :
_ WF disk file :    605.036 Mbytes ; DEN or POT disk file :      1.426 Mbytes.
================================================================================


 DATASET    3 : space group P4/n m m (#129); Bravais tP (primitive tetrag.)
================================================================================
 Values of the parameters that define the memory need for DATASET  3.
     intxc =       0    ionmov =       0      iscf =      -3    lmnmax =       6
     lnmax =       6     mgfft =     144  mpssoang =       3    mqgrid =    7069
     natom =       8  nloc_mem =       1    nspden =       1   nspinor =       1
    nsppol =       1      nsym =      16    n1xccc =    2501    ntypat =       2
    occopt =       1   xclevel =       2
-    mband =          68        mffmem =           1         mkmem =          11
       mpw =       10206          nfft =      186624          nkpt =          42
================================================================================
P This job should need less than                     155.820 Mbytes of memory.
  Rough estimation (10% accuracy) of disk space for files :
_ WF disk file :    444.770 Mbytes ; DEN or POT disk file :      1.426 Mbytes.
================================================================================

--------------------------------------------------------------------------------
------------- Echo of variables that govern the present computation ------------
--------------------------------------------------------------------------------
-
- outvars: echo of selected default values                                      
-   iomode0 =  0 , fftalg0 =112 , wfoptalg0 =  0
-
- outvars: echo of global parameters not present in the input file              
-  max_nthreads =    0
-
 -outvars: echo values of preprocessed input variables --------
            acell      7.7624316804E+00  7.7624316804E+00  7.7624316804E+00 Bohr
              amu      1.18710000E+02  7.89600000E+01
           diemac      1.20000000E+01
        dosdeltae1     0.00000000E+00 Hartree
        dosdeltae2     0.00000000E+00 Hartree
        dosdeltae3     1.00000000E-03 Hartree
             ecut      2.25000000E+01 Hartree
-          fftalg         112
           getden1          0
           getden2          1
           getden3          1
           getwfk1          0
           getwfk2          0
           getwfk3          1
           iatsph3       1    8
             iscf1         17
             iscf2         -2
             iscf3         -3
           istwfk2       7    0    0    0    0    0    0    0    0    0
                         4    0    0    0    0    0    0    0    0    0
                         0    0    2    0    0    0    0    0    0    0
                         0    0    0    0    0    0    0    0    0    0
                         9    0    0    0    0    0    0    0    8    0
              ixc     -101130
           jdtset        1    2    3
              kpt1     4.16666667E-02  4.16666667E-02  1.25000000E-01
                       1.25000000E-01  4.16666667E-02  1.25000000E-01
                       2.08333333E-01  4.16666667E-02  1.25000000E-01
                       2.91666667E-01  4.16666667E-02  1.25000000E-01
                       3.75000000E-01  4.16666667E-02  1.25000000E-01
                       4.58333333E-01  4.16666667E-02  1.25000000E-01
                       1.25000000E-01  1.25000000E-01  1.25000000E-01
                       2.08333333E-01  1.25000000E-01  1.25000000E-01
                       2.91666667E-01  1.25000000E-01  1.25000000E-01
                       3.75000000E-01  1.25000000E-01  1.25000000E-01
                       4.58333333E-01  1.25000000E-01  1.25000000E-01
                       2.08333333E-01  2.08333333E-01  1.25000000E-01
                       2.91666667E-01  2.08333333E-01  1.25000000E-01
                       3.75000000E-01  2.08333333E-01  1.25000000E-01
                       4.58333333E-01  2.08333333E-01  1.25000000E-01
                       2.91666667E-01  2.91666667E-01  1.25000000E-01
                       3.75000000E-01  2.91666667E-01  1.25000000E-01
                       4.58333333E-01  2.91666667E-01  1.25000000E-01
                       3.75000000E-01  3.75000000E-01  1.25000000E-01
                       4.58333333E-01  3.75000000E-01  1.25000000E-01
                       4.58333333E-01  4.58333333E-01  1.25000000E-01
                       4.16666667E-02  4.16666667E-02  3.75000000E-01
                       1.25000000E-01  4.16666667E-02  3.75000000E-01
                       2.08333333E-01  4.16666667E-02  3.75000000E-01
                       2.91666667E-01  4.16666667E-02  3.75000000E-01
                       3.75000000E-01  4.16666667E-02  3.75000000E-01
                       4.58333333E-01  4.16666667E-02  3.75000000E-01
                       1.25000000E-01  1.25000000E-01  3.75000000E-01
                       2.08333333E-01  1.25000000E-01  3.75000000E-01
                       2.91666667E-01  1.25000000E-01  3.75000000E-01
                       3.75000000E-01  1.25000000E-01  3.75000000E-01
                       4.58333333E-01  1.25000000E-01  3.75000000E-01
                       2.08333333E-01  2.08333333E-01  3.75000000E-01
                       2.91666667E-01  2.08333333E-01  3.75000000E-01
                       3.75000000E-01  2.08333333E-01  3.75000000E-01
                       4.58333333E-01  2.08333333E-01  3.75000000E-01
                       2.91666667E-01  2.91666667E-01  3.75000000E-01
                       3.75000000E-01  2.91666667E-01  3.75000000E-01
                       4.58333333E-01  2.91666667E-01  3.75000000E-01
                       3.75000000E-01  3.75000000E-01  3.75000000E-01
                       4.58333333E-01  3.75000000E-01  3.75000000E-01
                       4.58333333E-01  4.58333333E-01  3.75000000E-01
              kpt2     5.00000000E-01  5.00000000E-01  0.00000000E+00
                       4.50000000E-01  4.50000000E-01  5.00000000E-02
                       4.00000000E-01  4.00000000E-01  1.00000000E-01
                       3.50000000E-01  3.50000000E-01  1.50000000E-01
                       3.00000000E-01  3.00000000E-01  2.00000000E-01
                       2.50000000E-01  2.50000000E-01  2.50000000E-01
                       2.00000000E-01  2.00000000E-01  3.00000000E-01
                       1.50000000E-01  1.50000000E-01  3.50000000E-01
                       1.00000000E-01  1.00000000E-01  4.00000000E-01
                       5.00000000E-02  5.00000000E-02  4.50000000E-01
                       0.00000000E+00  0.00000000E+00  5.00000000E-01
                       0.00000000E+00  0.00000000E+00  4.58333333E-01
                       0.00000000E+00  0.00000000E+00  4.16666667E-01
                       0.00000000E+00  0.00000000E+00  3.75000000E-01
                       0.00000000E+00  0.00000000E+00  3.33333333E-01
                       0.00000000E+00  0.00000000E+00  2.91666667E-01
                       0.00000000E+00  0.00000000E+00  2.50000000E-01
                       0.00000000E+00  0.00000000E+00  2.08333333E-01
                       0.00000000E+00  0.00000000E+00  1.66666667E-01
                       0.00000000E+00  0.00000000E+00  1.25000000E-01
                       0.00000000E+00  0.00000000E+00  8.33333333E-02
                       0.00000000E+00  0.00000000E+00  4.16666667E-02
                       0.00000000E+00  0.00000000E+00  0.00000000E+00
                       2.77777778E-02  2.77777778E-02  2.77777778E-02
                       5.55555556E-02  5.55555556E-02  5.55555556E-02
                       8.33333333E-02  8.33333333E-02  8.33333333E-02
                       1.11111111E-01  1.11111111E-01  1.11111111E-01
                       1.38888889E-01  1.38888889E-01  1.38888889E-01
                       1.66666667E-01  1.66666667E-01  1.66666667E-01
                       1.94444444E-01  1.94444444E-01  1.94444444E-01
                       2.22222222E-01  2.22222222E-01  2.22222222E-01
                       2.50000000E-01  2.50000000E-01  2.50000000E-01
                       2.77777778E-01  2.77777778E-01  2.77777778E-01
                       3.05555556E-01  3.05555556E-01  3.05555556E-01
                       3.33333333E-01  3.33333333E-01  3.33333333E-01
                       3.61111111E-01  3.61111111E-01  3.61111111E-01
                       3.88888889E-01  3.88888889E-01  3.88888889E-01
                       4.16666667E-01  4.16666667E-01  4.16666667E-01
                       4.44444444E-01  4.44444444E-01  4.44444444E-01
                       4.72222222E-01  4.72222222E-01  4.72222222E-01
                       5.00000000E-01  5.00000000E-01  5.00000000E-01
                       4.37500000E-01  5.00000000E-01  5.00000000E-01
                       3.75000000E-01  5.00000000E-01  5.00000000E-01
                       3.12500000E-01  5.00000000E-01  5.00000000E-01
                       2.50000000E-01  5.00000000E-01  5.00000000E-01
                       1.87500000E-01  5.00000000E-01  5.00000000E-01
                       1.25000000E-01  5.00000000E-01  5.00000000E-01
                       6.25000000E-02  5.00000000E-01  5.00000000E-01
                       0.00000000E+00  5.00000000E-01  5.00000000E-01
                       0.00000000E+00  5.00000000E-01  4.37500000E-01
              kpt3     4.16666667E-02  4.16666667E-02  1.25000000E-01
                       1.25000000E-01  4.16666667E-02  1.25000000E-01
                       2.08333333E-01  4.16666667E-02  1.25000000E-01
                       2.91666667E-01  4.16666667E-02  1.25000000E-01
                       3.75000000E-01  4.16666667E-02  1.25000000E-01
                       4.58333333E-01  4.16666667E-02  1.25000000E-01
                       1.25000000E-01  1.25000000E-01  1.25000000E-01
                       2.08333333E-01  1.25000000E-01  1.25000000E-01
                       2.91666667E-01  1.25000000E-01  1.25000000E-01
                       3.75000000E-01  1.25000000E-01  1.25000000E-01
                       4.58333333E-01  1.25000000E-01  1.25000000E-01
                       2.08333333E-01  2.08333333E-01  1.25000000E-01
                       2.91666667E-01  2.08333333E-01  1.25000000E-01
                       3.75000000E-01  2.08333333E-01  1.25000000E-01
                       4.58333333E-01  2.08333333E-01  1.25000000E-01
                       2.91666667E-01  2.91666667E-01  1.25000000E-01
                       3.75000000E-01  2.91666667E-01  1.25000000E-01
                       4.58333333E-01  2.91666667E-01  1.25000000E-01
                       3.75000000E-01  3.75000000E-01  1.25000000E-01
                       4.58333333E-01  3.75000000E-01  1.25000000E-01
                       4.58333333E-01  4.58333333E-01  1.25000000E-01
                       4.16666667E-02  4.16666667E-02  3.75000000E-01
                       1.25000000E-01  4.16666667E-02  3.75000000E-01
                       2.08333333E-01  4.16666667E-02  3.75000000E-01
                       2.91666667E-01  4.16666667E-02  3.75000000E-01
                       3.75000000E-01  4.16666667E-02  3.75000000E-01
                       4.58333333E-01  4.16666667E-02  3.75000000E-01
                       1.25000000E-01  1.25000000E-01  3.75000000E-01
                       2.08333333E-01  1.25000000E-01  3.75000000E-01
                       2.91666667E-01  1.25000000E-01  3.75000000E-01
                       3.75000000E-01  1.25000000E-01  3.75000000E-01
                       4.58333333E-01  1.25000000E-01  3.75000000E-01
                       2.08333333E-01  2.08333333E-01  3.75000000E-01
                       2.91666667E-01  2.08333333E-01  3.75000000E-01
                       3.75000000E-01  2.08333333E-01  3.75000000E-01
                       4.58333333E-01  2.08333333E-01  3.75000000E-01
                       2.91666667E-01  2.91666667E-01  3.75000000E-01
                       3.75000000E-01  2.91666667E-01  3.75000000E-01
                       4.58333333E-01  2.91666667E-01  3.75000000E-01
                       3.75000000E-01  3.75000000E-01  3.75000000E-01
                       4.58333333E-01  3.75000000E-01  3.75000000E-01
                       4.58333333E-01  4.58333333E-01  3.75000000E-01
                       outvar_i_n : Printing only first  50 k-points.
           kptopt1          1
           kptopt2         -5
           kptopt3          1
         kptrlatt       12    0    0      0   12    0      0    0    4
          kptrlen1     9.31491802E+01
          kptrlen2     3.00000000E+01
          kptrlen3     9.31491802E+01
P           mkmem1         11
P           mkmem2         15
P           mkmem3         11
            natom           8
           natsph3       2
            nband1         68
            nband2         68
            nband3         68
           nbdbuf1          0
           nbdbuf2          2
           nbdbuf3          2
           ndtset           3
            ngfft          36      36     144
             nkpt1         42
             nkpt2         57
             nkpt3         42
            nstep1       1000
            nstep2        300
            nstep3        300
             nsym          16
           ntypat           2
              occ      2.000000  2.000000  2.000000  2.000000  2.000000  2.000000
                       2.000000  2.000000  2.000000  2.000000  2.000000  2.000000
                       2.000000  2.000000  2.000000  2.000000  2.000000  2.000000
                       2.000000  2.000000  2.000000  2.000000  2.000000  2.000000
                       2.000000  2.000000  2.000000  2.000000  2.000000  2.000000
                       2.000000  2.000000  2.000000  2.000000  2.000000  2.000000
                       2.000000  2.000000  2.000000  2.000000  2.000000  2.000000
                       2.000000  2.000000  2.000000  2.000000  2.000000  2.000000
                       2.000000  2.000000  2.000000  2.000000  2.000000  2.000000
                       2.000000  2.000000  2.000000  2.000000  2.000000  2.000000
                       0.000000  0.000000  0.000000  0.000000  0.000000  0.000000
                       0.000000  0.000000
           prtcif           1
           prtdos1          0
           prtdos2          0
           prtdos3          3
            rprim      1.0000000000E+00  0.0000000000E+00  0.0000000000E+00
                       0.0000000000E+00  1.0000000000E+00  0.0000000000E+00
                       0.0000000000E+00  0.0000000000E+00  4.2647429147E+00
           shiftk      5.00000000E-01  5.00000000E-01  5.00000000E-01
          spgroup         129
           symrel      1  0  0   0  1  0   0  0  1      -1  0  0   0 -1  0   0  0 -1
                      -1  0  0   0  1  0   0  0 -1       1  0  0   0 -1  0   0  0  1
                      -1  0  0   0 -1  0   0  0  1       1  0  0   0  1  0   0  0 -1
                       1  0  0   0 -1  0   0  0 -1      -1  0  0   0  1  0   0  0  1
                       0  1  0   1  0  0   0  0  1       0 -1  0  -1  0  0   0  0 -1
                       0 -1  0   1  0  0   0  0 -1       0  1  0  -1  0  0   0  0  1
                       0 -1  0  -1  0  0   0  0  1       0  1  0   1  0  0   0  0 -1
                       0  1  0  -1  0  0   0  0 -1       0 -1  0   1  0  0   0  0  1
            tnons      0.0000000  0.0000000  0.0000000     0.5000000  0.5000000  0.0000000
                       0.5000000  0.5000000  0.0000000     0.0000000  0.0000000  0.0000000
                      -0.0000000  0.0000000  0.0000000     0.5000000  0.5000000  0.0000000
                       0.5000000  0.5000000  0.0000000    -0.0000000  0.0000000  0.0000000
                       0.5000000  0.5000000  0.0000000     0.0000000 -0.0000000  0.0000000
                       0.0000000 -0.0000000  0.0000000     0.5000000  0.5000000  0.0000000
                       0.5000000  0.5000000  0.0000000     0.0000000  0.0000000  0.0000000
                       0.0000000  0.0000000  0.0000000     0.5000000  0.5000000  0.0000000
           tolwfr      1.00000000E-20
            typat      1  1  1  1  2  2  2  2
           vdw_xc           5
              wtk1       0.01389    0.02778    0.02778    0.02778    0.02778    0.02778
                         0.01389    0.02778    0.02778    0.02778    0.02778    0.01389
                         0.02778    0.02778    0.02778    0.01389    0.02778    0.02778
                         0.01389    0.02778    0.01389    0.01389    0.02778    0.02778
                         0.02778    0.02778    0.02778    0.01389    0.02778    0.02778
                         0.02778    0.02778    0.01389    0.02778    0.02778    0.02778
                         0.01389    0.02778    0.02778    0.01389    0.02778    0.01389
              wtk2       1.00000    1.00000    1.00000    1.00000    1.00000    1.00000
                         1.00000    1.00000    1.00000    1.00000    1.00000    1.00000
                         1.00000    1.00000    1.00000    1.00000    1.00000    1.00000
                         1.00000    1.00000    1.00000    1.00000    1.00000    1.00000
                         1.00000    1.00000    1.00000    1.00000    1.00000    1.00000
                         1.00000    1.00000    1.00000    1.00000    1.00000    1.00000
                         1.00000    1.00000    1.00000    1.00000    1.00000    1.00000
                         1.00000    1.00000    1.00000    1.00000    1.00000    1.00000
                         1.00000    1.00000
              wtk3       0.01389    0.02778    0.02778    0.02778    0.02778    0.02778
                         0.01389    0.02778    0.02778    0.02778    0.02778    0.01389
                         0.02778    0.02778    0.02778    0.01389    0.02778    0.02778
                         0.01389    0.02778    0.01389    0.01389    0.02778    0.02778
                         0.02778    0.02778    0.02778    0.01389    0.02778    0.02778
                         0.02778    0.02778    0.01389    0.02778    0.02778    0.02778
                         0.01389    0.02778    0.02778    0.01389    0.02778    0.01389
                       outvars : Printing only first  50 k-points.
           xangst      2.0538509643E+00  0.0000000000E+00  4.6664702533E+00
                       0.0000000000E+00  2.0538509643E+00  7.4160889198E+00
                       2.0538509643E+00  0.0000000000E+00  1.0102203775E+01
                       0.0000000000E+00  2.0538509643E+00  1.2851822442E+01
                       0.0000000000E+00  2.0538509643E+00  4.6982309179E+00
                       2.0538509643E+00  0.0000000000E+00  7.3843282551E+00
                       0.0000000000E+00  2.0538509643E+00  1.0133964440E+01
                       2.0538509643E+00  0.0000000000E+00  1.2820061777E+01
            xcart      3.8812158402E+00  0.0000000000E+00  8.8183507859E+00
                       0.0000000000E+00  3.8812158402E+00  1.4014377036E+01
                       3.8812158402E+00  0.0000000000E+00  1.9090398474E+01
                       0.0000000000E+00  3.8812158402E+00  2.4286424724E+01
                       0.0000000000E+00  3.8812158402E+00  8.8783697439E+00
                       3.8812158402E+00  0.0000000000E+00  1.3954358078E+01
                       0.0000000000E+00  3.8812158402E+00  1.9150417432E+01
                       3.8812158402E+00  0.0000000000E+00  2.4226405766E+01
             xred      5.0000000000E-01  0.0000000000E+00  2.6637700000E-01
                       0.0000000000E+00  5.0000000000E-01  4.2333400000E-01
                       5.0000000000E-01  0.0000000000E+00  5.7666600000E-01
                       0.0000000000E+00  5.0000000000E-01  7.3362300000E-01
                       0.0000000000E+00  5.0000000000E-01  2.6819000000E-01
                       5.0000000000E-01  0.0000000000E+00  4.2152100000E-01
                       0.0000000000E+00  5.0000000000E-01  5.7847900000E-01
                       5.0000000000E-01  0.0000000000E+00  7.3181000000E-01
            znucl       50.00000   34.00000

================================================================================

 chkinp: Checking input parameters for consistency, jdtset=   1.

 chkinp: Checking input parameters for consistency, jdtset=   2.

 chkinp: Checking input parameters for consistency, jdtset=   3.

================================================================================
== DATASET  1 ==================================================================
-   mpi_nproc: 4, omp_nthreads: -1 (-1 if OMP is not activated)


--- !DatasetInfo
iteration_state: {dtset: 1, }
dimensions: {natom: 8, nkpt: 42, mband: 68, nsppol: 1, nspinor: 1, nspden: 1, mpw: 10206, }
cutoff_energies: {ecut:  22.5, pawecutdg:  -1.0, }
electrons: {nelect:   1.20000000E+02, charge:   0.00000000E+00, occopt:   1.00000000E+00, tsmear:   1.00000000E-02, }
meta: {optdriver: 0, ionmov: 0, optcell: 0, iscf: 17, paral_kgb: 0, }
...

 Real(R)+Recip(G) space primitive vectors, cartesian coordinates (Bohr,Bohr^-1):
 R(1)=  7.7624317  0.0000000  0.0000000  G(1)=  0.1288256  0.0000000  0.0000000
 R(2)=  0.0000000  7.7624317  0.0000000  G(2)=  0.0000000  0.1288256  0.0000000
 R(3)=  0.0000000  0.0000000 33.1047755  G(3)=  0.0000000  0.0000000  0.0302071
 Unit cell volume ucvol=  1.9947397E+03 bohr^3
 Angles (23,13,12)=  9.00000000E+01  9.00000000E+01  9.00000000E+01 degrees

 getcut: wavevector=  0.0000  0.0000  0.0000  ngfft=  36  36 144
         ecut(hartree)=     22.500   => boxcut(ratio)=   2.03711

--- Pseudopotential description ------------------------------------------------
- pspini: atom type   1  psp file is ../../../Psps_for_tests/ATOMICDATA_NC/Sn.psp8
- pspatm: opening atomic psp file    ../../../Psps_for_tests/ATOMICDATA_NC/Sn.psp8
- Sn    ONCVPSP  r_core=  2.27  2.62  1.86
- 50.00000  14.00000    150810                znucl, zion, pspdat
    8   11    2    4       600   0.00000      pspcod,pspxc,lmax,lloc,mmax,r2well
    5.99000000000000    6.50000000000000    0.00000000000000   rchrg,fchrg,qchrg
     nproj     2     2     2
     extension_switch     1
  pspatm : epsatm=   32.65190642
         --- l  ekb(1:nproj) -->
             0    5.462393    0.682281
             1    4.443814    0.825686
             2   -5.382195   -1.704077
 pspatm: atomic psp has been read  and splines computed

- pspini: atom type   2  psp file is ../../../Psps_for_tests/ATOMICDATA_NC/Se.psp8
- pspatm: opening atomic psp file    ../../../Psps_for_tests/ATOMICDATA_NC/Se.psp8
- Se    ONCVPSP  r_core=  1.82  1.50  1.91
- 34.00000  16.00000    150729                znucl, zion, pspdat
    8   11    2    4       600   0.00000      pspcod,pspxc,lmax,lloc,mmax,r2well
    5.99000000000000    5.00000000000000    0.00000000000000   rchrg,fchrg,qchrg
     nproj     2     2     2
     extension_switch     1
  pspatm : epsatm=   29.53325930
         --- l  ekb(1:nproj) -->
             0    8.612261    0.939919
             1    6.984962    1.281898
             2   -9.322521   -3.856218
 pspatm: atomic psp has been read  and splines computed

   2.98488795E+04                                ecore*ucvol(ha*bohr**3)
--------------------------------------------------------------------------------

_setup2: Arith. and geom. avg. npw (full set) are   10168.236   10168.229

================================================================================

--- !BeginCycle
iteration_state: {dtset: 1, }
solver: {iscf: 17, nstep: 1000, nline: 4, wfoptalg: 0, }
tolerances: {tolwfr: 1.00E-20, }
...

     iter   Etot(hartree)      deltaE(h)  residm     nres2
 ETOT  1  -786.82566972494    -7.868E+02 8.622E-01 1.168E+02
 ETOT  2  -796.03344967131    -9.208E+00 2.738E-02 2.850E+01
 ETOT  3  -795.76491770634     2.685E-01 1.114E-02 4.914E-01
 ETOT  4  -795.75929059483     5.627E-03 5.837E-03 4.732E-02
 ETOT  5  -795.75714993540     2.141E-03 1.460E-03 2.342E-02
 ETOT  6  -795.75632056004     8.294E-04 2.180E-03 6.057E-03
 ETOT  7  -795.75555290567     7.677E-04 6.204E-04 2.717E-03
 ETOT  8  -795.75529283449     2.601E-04 2.604E-03 1.311E-03
 ETOT  9  -795.75525612928     3.671E-05 1.092E-03 4.410E-04
 ETOT 10  -795.75533322413    -7.709E-05 9.571E-04 1.210E-04
 ETOT 11  -795.75540703806    -7.381E-05 3.579E-04 1.495E-05
 ETOT 12  -795.75542964123    -2.260E-05 3.272E-04 8.765E-07
 ETOT 13  -795.75543045400    -8.128E-07 1.620E-04 2.695E-08
 ETOT 14  -795.75543046909    -1.509E-08 1.535E-04 2.128E-09
 ETOT 15  -795.75543047006    -9.637E-10 9.147E-05 4.047E-10
 ETOT 16  -795.75543047008    -2.399E-11 1.797E-04 7.043E-11
 ETOT 17  -795.75543047013    -4.491E-11 1.052E-04 1.900E-11
 ETOT 18  -795.75543047021    -8.231E-11 1.677E-04 1.595E-12
 ETOT 19  -795.75543047011     9.459E-11 9.553E-05 9.163E-13
 ETOT 20  -795.75543047022    -1.025E-10 1.256E-04 3.066E-13
 ETOT 21  -795.75543047010     1.169E-10 7.074E-05 1.466E-13
 ETOT 22  -795.75543047018    -7.731E-11 7.989E-05 2.707E-14
 ETOT 23  -795.75543047018    -6.708E-12 4.517E-05 1.005E-15
 ETOT 24  -795.75543047015     3.638E-11 6.020E-05 4.544E-17
 ETOT 25  -795.75543047011     3.831E-11 2.612E-05 4.636E-18
 ETOT 26  -795.75543047017    -6.526E-11 4.616E-05 5.429E-19
 ETOT 27  -795.75543047018    -6.821E-13 1.560E-05 5.978E-20
 ETOT 28  -795.75543047010     7.321E-11 3.501E-05 1.421E-20
 ETOT 29  -795.75543047011    -9.322E-12 1.166E-05 7.354E-22
 ETOT 30  -795.75543047012    -8.640E-12 2.631E-05 9.704E-23
 ETOT 31  -795.75543047012     1.819E-12 8.681E-06 6.309E-23
 ETOT 32  -795.75543047011     4.320E-12 1.963E-05 2.025E-23
 ETOT 33  -795.75543047012    -1.592E-12 6.440E-06 8.411E-24
 ETOT 34  -795.75543047012    -4.889E-12 1.458E-05 1.126E-24
 ETOT 35  -795.75543047012    -6.821E-13 4.764E-06 8.224E-26
 ETOT 36  -795.75543047012    -7.958E-13 1.079E-05 1.055E-26
 ETOT 37  -795.75543047012     1.137E-12 3.518E-06 2.683E-27
 ETOT 38  -795.75543047012    -2.274E-13 7.974E-06 2.852E-27
 ETOT 39  -795.75543047012     1.023E-12 2.597E-06 3.484E-27
 ETOT 40  -795.75543047012     0.000E+00 5.891E-06 7.417E-27
 ETOT 41  -795.75543047012     0.000E+00 2.034E-06 8.370E-27
 ETOT 42  -795.75543047012    -1.137E-13 4.353E-06 1.521E-26
 ETOT 43  -795.75543047012    -1.137E-12 1.843E-06 3.833E-26
 ETOT 44  -795.75543047012     9.095E-13 3.220E-06 2.530E-26
 ETOT 45  -795.75543047012     4.547E-13 1.659E-06 2.777E-26
 ETOT 46  -795.75543047012     0.000E+00 2.588E-06 2.923E-26
 ETOT 47  -795.75543047012     7.958E-13 1.482E-06 3.007E-26
 ETOT 48  -795.75543047012     2.274E-13 2.291E-06 3.230E-26
 ETOT 49  -795.75543047012    -1.023E-12 1.316E-06 6.708E-26
 ETOT 50  -795.75543047012     6.821E-13 2.015E-06 5.021E-26
 ETOT 51  -795.75543047012     6.821E-13 1.162E-06 3.242E-26
 ETOT 52  -795.75543047012    -1.364E-12 1.764E-06 2.949E-25
 ETOT 53  -795.75543047012     1.137E-12 1.020E-06 2.962E-26
 ETOT 54  -795.75543047012    -9.095E-13 1.537E-06 3.084E-26
 ETOT 55  -795.75543047012     1.705E-12 8.908E-07 7.565E-27
 ETOT 56  -795.75543047012    -2.274E-13 1.334E-06 5.246E-27
 ETOT 57  -795.75543047012    -1.137E-13 7.749E-07 3.928E-27
 ETOT 58  -795.75543047012     4.547E-13 1.154E-06 3.800E-27
 ETOT 59  -795.75543047012    -1.023E-12 6.714E-07 3.644E-27
 ETOT 60  -795.75543047012     5.684E-13 9.946E-07 4.345E-27
 ETOT 61  -795.75543047012     2.274E-13 5.798E-07 5.283E-27
 ETOT 62  -795.75543047012    -7.958E-13 8.550E-07 5.669E-27
 ETOT 63  -795.75543047012     1.137E-13 4.991E-07 1.006E-26
 ETOT 64  -795.75543047012    -2.274E-13 7.332E-07 1.229E-26
 ETOT 65  -795.75543047012     7.958E-13 4.311E-07 8.344E-27
 ETOT 66  -795.75543047012    -4.547E-13 6.573E-07 8.778E-27
 ETOT 67  -795.75543047012    -2.274E-13 4.209E-07 1.971E-26
 ETOT 68  -795.75543047012    -9.095E-13 6.126E-07 1.409E-26
 ETOT 69  -795.75543047012     4.547E-13 4.109E-07 2.406E-26
 ETOT 70  -795.75543047012     6.821E-13 5.706E-07 1.066E-26
 ETOT 71  -795.75543047012    -1.137E-13 4.011E-07 3.264E-26
 ETOT 72  -795.75543047012     9.095E-13 5.314E-07 1.043E-26
 ETOT 73  -795.75543047012     1.137E-13 3.915E-07 9.295E-27
 ETOT 74  -795.75543047012    -1.137E-12 4.946E-07 7.112E-27
 ETOT 75  -795.75543047012     2.274E-13 3.821E-07 7.862E-27
 ETOT 76  -795.75543047012     5.684E-13 4.603E-07 4.420E-27
 ETOT 77  -795.75543047012    -6.821E-13 3.728E-07 3.923E-27
 ETOT 78  -795.75543047012     1.137E-13 4.282E-07 5.097E-27
 ETOT 79  -795.75543047012     1.137E-13 3.637E-07 5.015E-27
 ETOT 80  -795.75543047012     0.000E+00 4.000E-07 5.780E-27
 ETOT 81  -795.75543047012     4.547E-13 3.546E-07 9.284E-27
 ETOT 82  -795.75543047012    -5.684E-13 3.904E-07 1.041E-26
 ETOT 83  -795.75543047012     0.000E+00 3.457E-07 1.034E-26
 ETOT 84  -795.75543047012     5.684E-13 3.809E-07 6.133E-27
 ETOT 85  -795.75543047012     4.547E-13 3.369E-07 6.320E-27
 ETOT 86  -795.75543047012    -1.023E-12 3.715E-07 6.558E-27
 ETOT 87  -795.75543047012    -5.684E-13 3.282E-07 5.661E-27
 ETOT 88  -795.75543047012     1.364E-12 3.622E-07 5.115E-27
 ETOT 89  -795.75543047012    -2.274E-13 3.196E-07 4.078E-27
 ETOT 90  -795.75543047012     0.000E+00 3.530E-07 4.009E-27
 ETOT 91  -795.75543047012     3.411E-13 3.111E-07 3.493E-27
 ETOT 92  -795.75543047012    -4.547E-13 3.439E-07 4.068E-27
 ETOT 93  -795.75543047012     5.684E-13 3.027E-07 3.147E-27
 ETOT 94  -795.75543047012    -9.095E-13 3.349E-07 4.721E-27
 ETOT 95  -795.75543047012     6.821E-13 2.944E-07 6.050E-27
 ETOT 96  -795.75543047012    -2.274E-13 3.260E-07 9.984E-27
 ETOT 97  -795.75543047012    -1.023E-12 2.862E-07 6.755E-27
 ETOT 98  -795.75543047012     3.411E-13 3.173E-07 6.804E-27
 ETOT 99  -795.75543047012     7.958E-13 2.781E-07 4.254E-27
 ETOT  100  -795.75543047012     7.958E-13 3.086E-07 6.626E-27
 ETOT  101  -795.75543047012    -1.364E-12 2.702E-07 5.150E-27
 ETOT  102  -795.75543047012     0.000E+00 3.000E-07 4.234E-27
 ETOT  103  -795.75543047012     5.684E-13 2.623E-07 3.227E-27
 ETOT  104  -795.75543047012     2.274E-13 2.916E-07 3.024E-27
 ETOT  105  -795.75543047012     0.000E+00 2.546E-07 3.272E-27
 ETOT  106  -795.75543047012    -2.274E-13 2.833E-07 4.878E-27
 ETOT  107  -795.75543047012    -2.274E-13 2.470E-07 3.287E-27
 ETOT  108  -795.75543047012     3.411E-13 2.751E-07 4.788E-27
 ETOT  109  -795.75543047012    -5.684E-13 2.396E-07 2.813E-27
 ETOT  110  -795.75543047012     3.411E-13 2.670E-07 4.429E-27
 ETOT  111  -795.75543047012    -2.274E-13 2.323E-07 3.025E-27
 ETOT  112  -795.75543047012     2.274E-13 2.590E-07 3.064E-27
 ETOT  113  -795.75543047012    -1.137E-12 2.251E-07 3.926E-27
 ETOT  114  -795.75543047012     7.958E-13 2.512E-07 3.334E-27
 ETOT  115  -795.75543047012    -6.821E-13 2.180E-07 2.744E-27
 ETOT  116  -795.75543047012     1.478E-12 2.436E-07 3.152E-27
 ETOT  117  -795.75543047012    -6.821E-13 2.111E-07 2.833E-27
 ETOT  118  -795.75543047012     6.821E-13 2.360E-07 2.636E-27
 ETOT  119  -795.75543047012    -4.547E-13 2.043E-07 4.248E-27
 ETOT  120  -795.75543047012     2.274E-13 2.286E-07 3.586E-27
 ETOT  121  -795.75543047012     6.821E-13 1.977E-07 3.923E-27
 ETOT  122  -795.75543047012    -2.274E-13 2.214E-07 1.040E-26
 ETOT  123  -795.75543047012    -1.137E-13 1.912E-07 2.881E-27
 ETOT  124  -795.75543047012    -2.274E-13 2.143E-07 3.323E-27
 ETOT  125  -795.75543047012    -2.274E-13 1.848E-07 4.085E-27
 ETOT  126  -795.75543047012     1.137E-13 2.073E-07 1.101E-26
 ETOT  127  -795.75543047012    -5.684E-13 1.787E-07 2.697E-27
 ETOT  128  -795.75543047012     2.274E-13 2.005E-07 3.171E-27
 ETOT  129  -795.75543047012    -9.095E-13 1.726E-07 2.989E-27
 ETOT  130  -795.75543047012     9.095E-13 1.939E-07 3.796E-27
 ETOT  131  -795.75543047012     0.000E+00 1.667E-07 2.441E-27
 ETOT  132  -795.75543047012    -1.137E-13 1.874E-07 2.062E-27
 ETOT  133  -795.75543047012    -3.411E-13 1.610E-07 2.013E-27
 ETOT  134  -795.75543047012     1.137E-13 1.810E-07 3.070E-27
 ETOT  135  -795.75543047012     2.274E-13 1.554E-07 2.546E-27
 ETOT  136  -795.75543047012    -1.137E-13 1.748E-07 5.019E-27
 ETOT  137  -795.75543047012     0.000E+00 1.499E-07 1.874E-27
 ETOT  138  -795.75543047012     1.137E-13 1.688E-07 1.954E-27
 ETOT  139  -795.75543047012    -3.411E-13 1.446E-07 1.908E-27
 ETOT  140  -795.75543047012     2.274E-13 1.629E-07 2.661E-27
 ETOT  141  -795.75543047012    -3.411E-13 1.394E-07 2.979E-27
 ETOT  142  -795.75543047012     9.095E-13 1.572E-07 2.670E-27
 ETOT  143  -795.75543047012    -4.547E-13 1.344E-07 3.163E-27
 ETOT  144  -795.75543047012     1.137E-13 1.516E-07 4.572E-27
 ETOT  145  -795.75543047012     1.137E-13 1.295E-07 1.985E-27
 ETOT  146  -795.75543047012    -7.958E-13 1.462E-07 7.520E-27
 ETOT  147  -795.75543047012     5.684E-13 1.248E-07 4.216E-27
 ETOT  148  -795.75543047012     2.274E-13 1.409E-07 3.017E-27
 ETOT  149  -795.75543047012    -1.137E-13 1.202E-07 4.476E-27
 ETOT  150  -795.75543047012     4.547E-13 1.358E-07 3.688E-27
 ETOT  151  -795.75543047012    -9.095E-13 1.157E-07 1.967E-27
 ETOT  152  -795.75543047012     5.684E-13 1.309E-07 1.875E-27
 ETOT  153  -795.75543047012     2.274E-13 1.114E-07 1.490E-27
 ETOT  154  -795.75543047012    -2.274E-13 1.260E-07 3.462E-27
 ETOT  155  -795.75543047012     1.137E-13 1.072E-07 2.710E-27
 ETOT  156  -795.75543047012    -6.821E-13 1.214E-07 1.624E-27
 ETOT  157  -795.75543047012     1.023E-12 1.032E-07 5.086E-27
 ETOT  158  -795.75543047012    -6.821E-13 1.168E-07 3.621E-27
 ETOT  159  -795.75543047012    -5.684E-13 9.928E-08 1.705E-27
 ETOT  160  -795.75543047012     1.137E-12 1.124E-07 3.014E-27
 ETOT  161  -795.75543047012    -1.023E-12 9.548E-08 3.092E-27
 ETOT  162  -795.75543047012     1.251E-12 1.082E-07 4.915E-27
 ETOT  163  -795.75543047012     2.274E-13 9.181E-08 2.406E-27
 ETOT  164  -795.75543047012    -1.251E-12 1.041E-07 1.631E-27
 ETOT  165  -795.75543047012     1.137E-12 8.826E-08 7.684E-27
 ETOT  166  -795.75543047012    -9.095E-13 1.001E-07 3.348E-27
 ETOT  167  -795.75543047012     0.000E+00 8.484E-08 5.298E-27
 ETOT  168  -795.75543047012    -2.274E-13 9.622E-08 1.623E-27
 ETOT  169  -795.75543047012     1.592E-12 8.152E-08 2.467E-27
 ETOT  170  -795.75543047012    -9.095E-13 9.249E-08 2.836E-27
 ETOT  171  -795.75543047012     5.684E-13 7.833E-08 1.556E-27
 ETOT  172  -795.75543047012    -2.274E-13 8.888E-08 1.752E-27
 ETOT  173  -795.75543047012     1.137E-13 7.524E-08 6.064E-27
 ETOT  174  -795.75543047012    -4.547E-13 8.540E-08 2.601E-27
 ETOT  175  -795.75543047012     0.000E+00 7.226E-08 2.025E-27
 ETOT  176  -795.75543047012    -2.274E-13 8.204E-08 2.291E-27
 ETOT  177  -795.75543047012     3.411E-13 6.939E-08 5.546E-27
 ETOT  178  -795.75543047012    -3.411E-13 7.879E-08 2.615E-27
 ETOT  179  -795.75543047012     1.137E-13 6.662E-08 3.500E-27
 ETOT  180  -795.75543047012     5.684E-13 7.566E-08 7.451E-27
 ETOT  181  -795.75543047012    -6.821E-13 6.395E-08 4.188E-27
 ETOT  182  -795.75543047012     1.478E-12 7.264E-08 1.505E-27
 ETOT  183  -795.75543047012    -1.251E-12 6.137E-08 1.344E-27
 ETOT  184  -795.75543047012    -2.274E-13 6.973E-08 1.314E-27
 ETOT  185  -795.75543047012     0.000E+00 5.889E-08 1.269E-27
 ETOT  186  -795.75543047012    -1.137E-13 6.692E-08 3.159E-27
 ETOT  187  -795.75543047012     2.274E-13 5.650E-08 1.523E-27
 ETOT  188  -795.75543047012     4.547E-13 6.421E-08 1.850E-27
 ETOT  189  -795.75543047012    -1.137E-13 5.421E-08 1.534E-27
 ETOT  190  -795.75543047012    -7.958E-13 6.160E-08 2.498E-27
 ETOT  191  -795.75543047012     4.547E-13 5.199E-08 6.574E-27
 ETOT  192  -795.75543047012    -2.274E-13 5.909E-08 1.752E-27
 ETOT  193  -795.75543047012     4.547E-13 4.986E-08 2.389E-27
 ETOT  194  -795.75543047012    -3.411E-13 5.667E-08 1.299E-27
 ETOT  195  -795.75543047012     1.137E-13 4.781E-08 2.035E-27
 ETOT  196  -795.75543047012     1.137E-12 5.434E-08 1.440E-27
 ETOT  197  -795.75543047012    -1.137E-13 4.584E-08 1.188E-27
 ETOT  198  -795.75543047012     2.274E-13 5.210E-08 1.274E-27
 ETOT  199  -795.75543047012    -1.137E-12 4.394E-08 1.643E-26
 ETOT  200  -795.75543047012     3.411E-13 4.994E-08 1.879E-27
 ETOT  201  -795.75543047012     1.137E-13 4.212E-08 2.442E-27
 ETOT  202  -795.75543047012    -4.547E-13 4.787E-08 3.723E-27
 ETOT  203  -795.75543047012     4.547E-13 4.037E-08 1.384E-27
 ETOT  204  -795.75543047012     0.000E+00 4.587E-08 1.266E-27
 ETOT  205  -795.75543047012     6.821E-13 3.869E-08 1.425E-27
 ETOT  206  -795.75543047012    -2.274E-13 4.395E-08 2.225E-27
 ETOT  207  -795.75543047012     1.137E-13 3.707E-08 3.205E-27
 ETOT  208  -795.75543047012    -9.095E-13 4.211E-08 1.789E-27
 ETOT  209  -795.75543047012     4.547E-13 3.551E-08 3.518E-27
 ETOT  210  -795.75543047012     1.137E-13 4.034E-08 2.117E-27
 ETOT  211  -795.75543047012    -5.684E-13 3.402E-08 2.683E-27
 ETOT  212  -795.75543047012     2.274E-13 3.863E-08 1.664E-27
 ETOT  213  -795.75543047012     1.023E-12 3.259E-08 2.054E-27
 ETOT  214  -795.75543047012    -1.137E-12 3.882E-08 1.611E-27
 ETOT  215  -795.75543047012     9.095E-13 3.121E-08 8.432E-27
 ETOT  216  -795.75543047012    -4.547E-13 3.911E-08 1.449E-27
 ETOT  217  -795.75543047012     4.547E-13 2.989E-08 2.781E-27
 ETOT  218  -795.75543047012    -3.411E-13 3.940E-08 2.700E-27
 ETOT  219  -795.75543047012    -5.684E-13 2.863E-08 2.121E-26
 ETOT  220  -795.75543047012     1.137E-13 3.970E-08 1.291E-27
 ETOT  221  -795.75543047012     0.000E+00 2.742E-08 7.265E-27
 ETOT  222  -795.75543047012     5.684E-13 3.999E-08 2.777E-27
 ETOT  223  -795.75543047012    -4.547E-13 2.626E-08 3.669E-27
 ETOT  224  -795.75543047012    -6.821E-13 4.028E-08 5.193E-27
 ETOT  225  -795.75543047012     0.000E+00 2.516E-08 1.621E-27
 ETOT  226  -795.75543047012     7.958E-13 4.058E-08 1.355E-27
 ETOT  227  -795.75543047012    -5.684E-13 2.411E-08 1.689E-27
 ETOT  228  -795.75543047012     0.000E+00 4.087E-08 2.199E-27
 ETOT  229  -795.75543047012     3.411E-13 2.315E-08 3.101E-27
 ETOT  230  -795.75543047012    -5.684E-13 4.117E-08 5.861E-27
 ETOT  231  -795.75543047012     7.958E-13 2.225E-08 1.050E-26
 ETOT  232  -795.75543047012    -5.684E-13 4.147E-08 3.464E-27
 ETOT  233  -795.75543047012    -3.411E-13 2.146E-08 2.653E-27
 ETOT  234  -795.75543047012     1.023E-12 4.176E-08 6.479E-27
 ETOT  235  -795.75543047012    -5.684E-13 2.073E-08 2.201E-27
 ETOT  236  -795.75543047012    -2.274E-13 4.206E-08 2.262E-27
 ETOT  237  -795.75543047012     3.411E-13 2.004E-08 2.009E-27
 ETOT  238  -795.75543047012     2.274E-13 4.236E-08 1.310E-27
 ETOT  239  -795.75543047012    -7.958E-13 1.933E-08 3.573E-27
 ETOT  240  -795.75543047012     7.958E-13 4.266E-08 1.240E-27
 ETOT  241  -795.75543047012    -4.547E-13 1.929E-08 1.205E-27
 ETOT  242  -795.75543047012     2.274E-13 4.296E-08 3.578E-27
 ETOT  243  -795.75543047012     2.274E-13 1.942E-08 3.586E-27
 ETOT  244  -795.75543047012    -7.958E-13 4.326E-08 1.445E-27
 ETOT  245  -795.75543047012     3.411E-13 1.956E-08 1.883E-27
 ETOT  246  -795.75543047012    -5.684E-13 4.356E-08 1.546E-27
 ETOT  247  -795.75543047012     2.274E-13 1.970E-08 4.098E-27
 ETOT  248  -795.75543047012     5.684E-13 4.386E-08 1.574E-27
 ETOT  249  -795.75543047012    -9.095E-13 1.983E-08 4.433E-27
 ETOT  250  -795.75543047012     9.095E-13 4.416E-08 1.953E-27
 ETOT  251  -795.75543047012     0.000E+00 1.997E-08 1.815E-27
 ETOT  252  -795.75543047012    -6.821E-13 4.447E-08 1.830E-27
 ETOT  253  -795.75543047012     3.411E-13 2.010E-08 1.343E-26
 ETOT  254  -795.75543047012    -1.137E-13 4.477E-08 1.341E-27
 ETOT  255  -795.75543047012     3.411E-13 2.024E-08 1.150E-27
 ETOT  256  -795.75543047012    -4.547E-13 4.507E-08 1.374E-27
 ETOT  257  -795.75543047012    -5.684E-13 2.038E-08 1.016E-27
 ETOT  258  -795.75543047012     0.000E+00 4.537E-08 1.125E-27
 ETOT  259  -795.75543047012     5.684E-13 2.051E-08 1.390E-27
 ETOT  260  -795.75543047012     4.547E-13 4.568E-08 1.215E-27
 ETOT  261  -795.75543047012    -1.023E-12 2.065E-08 5.090E-27
 ETOT  262  -795.75543047012     6.821E-13 4.598E-08 2.277E-27
 ETOT  263  -795.75543047012     1.023E-12 2.079E-08 1.744E-27
 ETOT  264  -795.75543047012    -1.251E-12 4.628E-08 3.860E-27
 ETOT  265  -795.75543047012     6.821E-13 2.092E-08 1.870E-27
 ETOT  266  -795.75543047012    -9.095E-13 4.659E-08 2.086E-27
 ETOT  267  -795.75543047012     5.684E-13 2.106E-08 2.565E-27
 ETOT  268  -795.75543047012     0.000E+00 4.689E-08 2.118E-27
 ETOT  269  -795.75543047012    -5.684E-13 2.120E-08 2.015E-27
 ETOT  270  -795.75543047012     5.684E-13 4.719E-08 1.724E-27
 ETOT  271  -795.75543047012     9.095E-13 2.133E-08 1.031E-26
 ETOT  272  -795.75543047012    -6.821E-13 4.750E-08 2.094E-27
 ETOT  273  -795.75543047012    -3.411E-13 2.147E-08 2.225E-27
 ETOT  274  -795.75543047012    -2.274E-13 4.780E-08 2.164E-27
 ETOT  275  -795.75543047012     2.274E-13 2.161E-08 1.298E-27
 ETOT  276  -795.75543047012    -5.684E-13 4.810E-08 1.827E-27
 ETOT  277  -795.75543047012     4.547E-13 2.175E-08 1.345E-27
 ETOT  278  -795.75543047012     1.023E-12 4.841E-08 1.118E-27
 ETOT  279  -795.75543047012    -6.821E-13 2.188E-08 3.376E-27
 ETOT  280  -795.75543047012     0.000E+00 4.871E-08 1.292E-27
 ETOT  281  -795.75543047012    -5.684E-13 2.202E-08 4.067E-27
 ETOT  282  -795.75543047012     1.137E-13 4.901E-08 9.506E-27
 ETOT  283  -795.75543047012    -2.274E-13 2.216E-08 2.088E-27
 ETOT  284  -795.75543047012    -1.137E-13 4.932E-08 3.228E-27
 ETOT  285  -795.75543047012     1.137E-13 2.229E-08 1.056E-27
 ETOT  286  -795.75543047012    -4.547E-13 4.962E-08 1.506E-27
 ETOT  287  -795.75543047012    -3.411E-13 2.243E-08 1.069E-27
 ETOT  288  -795.75543047012    -1.137E-13 4.992E-08 4.213E-27
 ETOT  289  -795.75543047012     4.547E-13 2.257E-08 3.101E-27
 ETOT  290  -795.75543047012     1.137E-13 5.023E-08 1.705E-27
 ETOT  291  -795.75543047012    -4.547E-13 2.270E-08 9.911E-28
 ETOT  292  -795.75543047012     9.095E-13 5.053E-08 1.163E-27
 ETOT  293  -795.75543047012    -2.274E-13 2.284E-08 1.809E-27
 ETOT  294  -795.75543047012    -6.821E-13 5.083E-08 2.083E-27
 ETOT  295  -795.75543047012    -1.137E-13 2.297E-08 1.675E-27
 ETOT  296  -795.75543047012     0.000E+00 5.113E-08 2.198E-27
 ETOT  297  -795.75543047012     3.411E-13 2.311E-08 1.096E-27
 ETOT  298  -795.75543047012    -1.023E-12 5.143E-08 1.251E-27
 ETOT  299  -795.75543047012     2.387E-12 2.324E-08 7.035E-27
 ETOT  300  -795.75543047012    -2.274E-13 5.173E-08 9.617E-27
 ETOT  301  -795.75543047012    -1.705E-12 2.338E-08 1.272E-27
 ETOT  302  -795.75543047012     1.137E-13 5.203E-08 1.561E-27
 ETOT  303  -795.75543047012     1.137E-13 2.351E-08 2.613E-27
 ETOT  304  -795.75543047012     1.137E-13 5.233E-08 1.244E-27
 ETOT  305  -795.75543047012     4.547E-13 2.365E-08 1.805E-27
 ETOT  306  -795.75543047012     0.000E+00 5.263E-08 2.644E-27
 ETOT  307  -795.75543047012     0.000E+00 2.378E-08 4.746E-27
 ETOT  308  -795.75543047012    -4.547E-13 5.292E-08 1.492E-27
 ETOT  309  -795.75543047012     2.274E-13 2.392E-08 1.432E-27
 ETOT  310  -795.75543047012    -4.547E-13 5.322E-08 1.182E-27
 ETOT  311  -795.75543047012     2.274E-13 2.405E-08 1.173E-27
 ETOT  312  -795.75543047012     1.137E-12 5.351E-08 4.493E-27
 ETOT  313  -795.75543047012    -6.821E-13 2.418E-08 1.949E-27
 ETOT  314  -795.75543047012    -3.411E-13 5.381E-08 1.221E-27
 ETOT  315  -795.75543047012     1.364E-12 2.432E-08 2.132E-27
 ETOT  316  -795.75543047012    -3.411E-13 5.410E-08 6.432E-27
 ETOT  317  -795.75543047012    -6.821E-13 2.445E-08 1.033E-27
 ETOT  318  -795.75543047012    -2.274E-13 5.440E-08 1.684E-27
 ETOT  319  -795.75543047012     6.821E-13 2.458E-08 1.456E-27
 ETOT  320  -795.75543047012    -2.274E-13 5.469E-08 1.587E-27
 ETOT  321  -795.75543047012    -6.821E-13 2.471E-08 1.051E-27
 ETOT  322  -795.75543047012     0.000E+00 5.498E-08 1.085E-27
 ETOT  323  -795.75543047012     5.684E-13 2.484E-08 2.714E-27
 ETOT  324  -795.75543047012    -2.274E-13 5.527E-08 2.197E-27
 ETOT  325  -795.75543047012    -5.684E-13 2.497E-08 1.503E-27
 ETOT  326  -795.75543047012     5.684E-13 5.556E-08 2.219E-27
 ETOT  327  -795.75543047012     1.137E-13 2.510E-08 9.958E-28
 ETOT  328  -795.75543047012     3.411E-13 5.584E-08 3.235E-27
 ETOT  329  -795.75543047012    -4.547E-13 2.523E-08 1.205E-26
 ETOT  330  -795.75543047012    -4.547E-13 5.613E-08 1.171E-27
 ETOT  331  -795.75543047012     9.095E-13 2.536E-08 1.968E-27
 ETOT  332  -795.75543047012    -4.547E-13 5.642E-08 1.728E-27
 ETOT  333  -795.75543047012    -3.411E-13 2.549E-08 1.339E-27
 ETOT  334  -795.75543047012     1.137E-13 5.670E-08 9.119E-28
 ETOT  335  -795.75543047012    -1.137E-13 2.561E-08 1.438E-27
 ETOT  336  -795.75543047012     3.411E-13 5.698E-08 5.570E-27
 ETOT  337  -795.75543047012     2.274E-13 2.574E-08 1.115E-27
 ETOT  338  -795.75543047012    -5.684E-13 5.726E-08 2.143E-27
 ETOT  339  -795.75543047012     3.411E-13 2.587E-08 2.322E-27
 ETOT  340  -795.75543047012    -2.274E-13 5.754E-08 2.503E-27
 ETOT  341  -795.75543047012     9.095E-13 2.599E-08 1.082E-26
 ETOT  342  -795.75543047012    -1.137E-13 5.782E-08 9.440E-27
 ETOT  343  -795.75543047012    -6.821E-13 2.612E-08 1.508E-27
 ETOT  344  -795.75543047012    -1.137E-13 5.809E-08 1.390E-27
 ETOT  345  -795.75543047012     2.274E-13 2.624E-08 2.354E-27
 ETOT  346  -795.75543047012    -1.137E-13 5.837E-08 1.725E-27
 ETOT  347  -795.75543047012     5.684E-13 2.636E-08 2.087E-27
 ETOT  348  -795.75543047012    -4.547E-13 5.864E-08 1.075E-27
 ETOT  349  -795.75543047012    -1.137E-13 2.649E-08 2.580E-27
 ETOT  350  -795.75543047012     4.547E-13 5.891E-08 6.880E-27
 ETOT  351  -795.75543047012    -5.684E-13 2.661E-08 2.318E-27
 ETOT  352  -795.75543047012     1.137E-13 5.918E-08 1.251E-27
 ETOT  353  -795.75543047012     0.000E+00 2.673E-08 1.033E-27
 ETOT  354  -795.75543047012     1.137E-13 5.945E-08 1.061E-27
 ETOT  355  -795.75543047012     7.958E-13 2.685E-08 3.227E-27
 ETOT  356  -795.75543047012    -9.095E-13 5.971E-08 3.176E-27
 ETOT  357  -795.75543047012    -2.274E-13 2.697E-08 2.681E-27
 ETOT  358  -795.75543047012     2.274E-13 5.998E-08 2.215E-27
 ETOT  359  -795.75543047012    -3.411E-13 2.708E-08 3.026E-27
 ETOT  360  -795.75543047012     1.137E-12 6.024E-08 7.720E-27
 ETOT  361  -795.75543047012    -1.137E-13 2.720E-08 7.401E-27
 ETOT  362  -795.75543047012    -5.684E-13 6.050E-08 6.345E-27
 ETOT  363  -795.75543047012     5.684E-13 2.732E-08 1.408E-27
 ETOT  364  -795.75543047012    -4.547E-13 6.075E-08 7.269E-27
 ETOT  365  -795.75543047012    -2.274E-13 2.743E-08 1.504E-27
 ETOT  366  -795.75543047012     1.023E-12 6.101E-08 2.133E-27
 ETOT  367  -795.75543047012    -1.251E-12 2.755E-08 1.433E-27
 ETOT  368  -795.75543047012     3.411E-13 6.126E-08 1.309E-27
 ETOT  369  -795.75543047012    -3.411E-13 2.766E-08 1.027E-27
 ETOT  370  -795.75543047012     2.274E-13 6.151E-08 1.106E-27
 ETOT  371  -795.75543047012    -1.137E-13 2.777E-08 1.077E-27
 ETOT  372  -795.75543047012     5.684E-13 6.176E-08 1.468E-27
 ETOT  373  -795.75543047012    -4.547E-13 2.788E-08 3.617E-27
 ETOT  374  -795.75543047012     3.411E-13 6.200E-08 1.729E-27
 ETOT  375  -795.75543047012    -5.684E-13 2.799E-08 3.583E-27
 ETOT  376  -795.75543047012     1.137E-13 6.225E-08 1.819E-27
 ETOT  377  -795.75543047012     6.821E-13 2.810E-08 1.617E-27
 ETOT  378  -795.75543047012    -2.274E-13 6.249E-08 1.448E-27
 ETOT  379  -795.75543047012     3.411E-13 2.821E-08 2.472E-27
 ETOT  380  -795.75543047012    -2.274E-13 6.272E-08 1.249E-27
 ETOT  381  -795.75543047012     0.000E+00 2.832E-08 2.294E-27
 ETOT  382  -795.75543047012    -6.821E-13 6.296E-08 1.263E-27
 ETOT  383  -795.75543047012     7.958E-13 2.842E-08 2.441E-27
 ETOT  384  -795.75543047012    -5.684E-13 6.319E-08 1.618E-27
 ETOT  385  -795.75543047012     1.137E-13 2.852E-08 1.118E-27
 ETOT  386  -795.75543047012     3.411E-13 6.342E-08 9.975E-28
 ETOT  387  -795.75543047012    -3.411E-13 2.863E-08 9.422E-28
 ETOT  388  -795.75543047012     1.137E-13 6.365E-08 1.195E-27
 ETOT  389  -795.75543047012    -1.137E-13 2.873E-08 1.348E-27
 ETOT  390  -795.75543047012     2.274E-13 6.387E-08 2.942E-27
 ETOT  391  -795.75543047012     2.274E-13 2.883E-08 1.285E-27
 ETOT  392  -795.75543047012    -1.137E-13 6.409E-08 1.439E-27
 ETOT  393  -795.75543047012     1.137E-13 2.893E-08 1.854E-27
 ETOT  394  -795.75543047012    -4.547E-13 6.431E-08 1.526E-27
 ETOT  395  -795.75543047012     5.684E-13 2.903E-08 1.181E-27
 ETOT  396  -795.75543047012    -1.251E-12 6.453E-08 1.650E-27
 ETOT  397  -795.75543047012     2.274E-13 2.912E-08 9.061E-27
 ETOT  398  -795.75543047012     1.137E-13 6.474E-08 4.617E-27
 ETOT  399  -795.75543047012     0.000E+00 2.922E-08 3.833E-27
 ETOT  400  -795.75543047012     1.137E-13 6.495E-08 5.866E-27
 ETOT  401  -795.75543047012     0.000E+00 2.931E-08 1.240E-27
 ETOT  402  -795.75543047012    -1.137E-13 6.516E-08 1.568E-27
 ETOT  403  -795.75543047012     1.137E-13 2.940E-08 1.845E-27
 ETOT  404  -795.75543047012     4.547E-13 6.536E-08 4.550E-27
 ETOT  405  -795.75543047012    -9.095E-13 2.949E-08 1.922E-27
 ETOT  406  -795.75543047012     7.958E-13 6.556E-08 1.840E-27
 ETOT  407  -795.75543047012    -7.958E-13 2.958E-08 1.701E-27
 ETOT  408  -795.75543047012     7.958E-13 6.576E-08 2.381E-27
 ETOT  409  -795.75543047012    -3.411E-13 2.967E-08 1.507E-27
 ETOT  410  -795.75543047012     1.137E-13 6.595E-08 1.386E-27
 ETOT  411  -795.75543047012    -3.411E-13 2.975E-08 2.985E-27
 ETOT  412  -795.75543047012     3.411E-13 6.614E-08 6.521E-27
 ETOT  413  -795.75543047012    -3.411E-13 2.984E-08 7.685E-27
 ETOT  414  -795.75543047012     4.547E-13 6.632E-08 2.927E-27
 ETOT  415  -795.75543047012    -1.364E-12 2.992E-08 1.452E-27
 ETOT  416  -795.75543047012     2.274E-13 6.651E-08 5.971E-27
 ETOT  417  -795.75543047012    -3.411E-13 3.000E-08 6.269E-27
 ETOT  418  -795.75543047012     1.137E-13 6.669E-08 1.893E-27
 ETOT  419  -795.75543047012    -2.274E-13 3.008E-08 7.021E-27
 ETOT  420  -795.75543047012     2.274E-13 6.686E-08 1.619E-27
 ETOT  421  -795.75543047012     1.137E-13 3.016E-08 1.823E-27
 ETOT  422  -795.75543047012    -2.274E-13 6.703E-08 1.945E-27
 ETOT  423  -795.75543047012     0.000E+00 3.024E-08 2.250E-27
 ETOT  424  -795.75543047012     3.411E-13 6.720E-08 1.941E-27
 ETOT  425  -795.75543047012    -1.137E-13 3.031E-08 3.442E-27
 ETOT  426  -795.75543047012    -3.411E-13 6.737E-08 4.405E-27
 ETOT  427  -795.75543047012     1.478E-12 3.039E-08 3.293E-27
 ETOT  428  -795.75543047012    -6.821E-13 6.753E-08 2.030E-27
 ETOT  429  -795.75543047012     0.000E+00 3.046E-08 1.246E-27
 ETOT  430  -795.75543047012    -3.411E-13 6.769E-08 2.375E-27
 ETOT  431  -795.75543047012     3.411E-13 3.053E-08 1.641E-27
 ETOT  432  -795.75543047012     4.547E-13 6.784E-08 3.514E-27
 ETOT  433  -795.75543047012    -5.684E-13 3.060E-08 1.825E-27
 ETOT  434  -795.75543047012     3.411E-13 6.799E-08 3.319E-27
 ETOT  435  -795.75543047012    -3.411E-13 3.066E-08 6.130E-27
 ETOT  436  -795.75543047012    -4.547E-13 6.814E-08 4.708E-27
 ETOT  437  -795.75543047012     1.137E-13 3.073E-08 1.817E-27
 ETOT  438  -795.75543047012    -5.684E-13 6.828E-08 1.380E-27
 ETOT  439  -795.75543047012     6.821E-13 3.079E-08 1.691E-27
 ETOT  440  -795.75543047012     1.023E-12 6.842E-08 1.395E-27
 ETOT  441  -795.75543047012    -5.684E-13 3.085E-08 1.453E-27
 ETOT  442  -795.75543047012    -2.274E-13 6.855E-08 1.518E-27
 ETOT  443  -795.75543047012    -7.958E-13 3.091E-08 1.641E-27
 ETOT  444  -795.75543047012     6.821E-13 6.868E-08 3.636E-27
 ETOT  445  -795.75543047012    -2.274E-13 3.097E-08 1.463E-27
 ETOT  446  -795.75543047012    -6.821E-13 6.880E-08 8.373E-27
 ETOT  447  -795.75543047012     0.000E+00 3.102E-08 2.933E-27
 ETOT  448  -795.75543047012     0.000E+00 6.893E-08 1.429E-27
 ETOT  449  -795.75543047012     4.547E-13 3.108E-08 5.072E-27
 ETOT  450  -795.75543047012     0.000E+00 6.904E-08 2.373E-27
 ETOT  451  -795.75543047012     1.137E-13 3.113E-08 1.471E-27
 ETOT  452  -795.75543047012     3.411E-13 6.916E-08 1.544E-27
 ETOT  453  -795.75543047012    -1.137E-13 3.118E-08 2.007E-27
 ETOT  454  -795.75543047012    -1.023E-12 6.927E-08 3.451E-27
 ETOT  455  -795.75543047012     1.137E-13 3.122E-08 2.702E-27
 ETOT  456  -795.75543047012    -1.137E-13 6.937E-08 1.178E-27
 ETOT  457  -795.75543047012     3.411E-13 3.127E-08 3.123E-27
 ETOT  458  -795.75543047012    -1.137E-13 6.947E-08 3.301E-27
 ETOT  459  -795.75543047012    -1.137E-13 3.131E-08 1.171E-27
 ETOT  460  -795.75543047012    -3.411E-13 6.957E-08 1.786E-27
 ETOT  461  -795.75543047012    -5.684E-13 3.136E-08 1.175E-26
 ETOT  462  -795.75543047012     1.137E-12 6.966E-08 3.085E-27
 ETOT  463  -795.75543047012    -6.821E-13 3.140E-08 1.156E-27
 ETOT  464  -795.75543047012     2.274E-13 6.974E-08 1.435E-27
 ETOT  465  -795.75543047012    -3.411E-13 3.144E-08 2.145E-27
 ETOT  466  -795.75543047012    -5.684E-13 6.983E-08 3.809E-27
 ETOT  467  -795.75543047012     1.251E-12 3.147E-08 1.325E-27
 ETOT  468  -795.75543047012    -1.137E-13 6.991E-08 8.187E-27
 ETOT  469  -795.75543047012    -5.684E-13 3.151E-08 1.750E-27
 ETOT  470  -795.75543047012    -5.684E-13 6.998E-08 1.262E-26
 ETOT  471  -795.75543047012    -2.274E-13 3.154E-08 1.777E-27
 ETOT  472  -795.75543047012     3.411E-13 7.005E-08 3.639E-27
 ETOT  473  -795.75543047012    -2.274E-13 3.157E-08 1.920E-27
 ETOT  474  -795.75543047012     2.274E-13 7.011E-08 2.160E-27
 ETOT  475  -795.75543047012    -2.274E-13 3.160E-08 1.591E-27
 ETOT  476  -795.75543047012    -1.137E-13 7.017E-08 1.587E-27
 ETOT  477  -795.75543047012    -5.684E-13 3.162E-08 2.294E-27
 ETOT  478  -795.75543047012     6.821E-13 7.023E-08 1.518E-27
 ETOT  479  -795.75543047012    -3.411E-13 3.165E-08 1.478E-27
 ETOT  480  -795.75543047012     5.684E-13 7.028E-08 2.004E-26
 ETOT  481  -795.75543047012    -2.274E-13 3.167E-08 4.554E-27
 ETOT  482  -795.75543047012    -1.137E-13 7.033E-08 1.702E-27
 ETOT  483  -795.75543047012    -2.274E-13 3.169E-08 3.071E-27
 ETOT  484  -795.75543047012     2.274E-13 7.037E-08 8.041E-27
 ETOT  485  -795.75543047012    -2.274E-13 3.171E-08 1.849E-27
 ETOT  486  -795.75543047012     1.137E-13 7.041E-08 1.701E-27
 ETOT  487  -795.75543047012     3.411E-13 3.172E-08 1.315E-27
 ETOT  488  -795.75543047012     1.137E-13 7.044E-08 1.950E-27
 ETOT  489  -795.75543047012    -6.821E-13 3.174E-08 1.948E-27
 ETOT  490  -795.75543047012     6.821E-13 7.047E-08 2.417E-27
 ETOT  491  -795.75543047012    -1.137E-13 3.175E-08 3.745E-27
 ETOT  492  -795.75543047012     2.274E-13 7.049E-08 2.084E-27
 ETOT  493  -795.75543047012    -1.137E-13 3.176E-08 1.885E-27
 ETOT  494  -795.75543047012    -2.274E-13 7.051E-08 1.933E-27
 ETOT  495  -795.75543047012     0.000E+00 3.176E-08 1.151E-27
 ETOT  496  -795.75543047012     2.274E-13 7.053E-08 1.562E-27
 ETOT  497  -795.75543047012    -4.547E-13 3.177E-08 3.054E-27
 ETOT  498  -795.75543047012     5.684E-13 7.054E-08 1.371E-27
 ETOT  499  -795.75543047012    -5.684E-13 3.177E-08 1.379E-27
 ETOT  500  -795.75543047012     5.684E-13 7.054E-08 1.586E-27
 ETOT  501  -795.75543047012    -1.023E-12 3.177E-08 2.395E-27
 ETOT  502  -795.75543047012     9.095E-13 7.054E-08 5.882E-27
 ETOT  503  -795.75543047012    -9.095E-13 3.177E-08 2.310E-27
 ETOT  504  -795.75543047012     1.137E-13 7.054E-08 1.360E-27
 ETOT  505  -795.75543047012     1.137E-13 3.177E-08 1.273E-27
 ETOT  506  -795.75543047012    -7.958E-13 7.053E-08 1.459E-27
 ETOT  507  -795.75543047012     2.274E-13 3.176E-08 1.471E-27
 ETOT  508  -795.75543047012     6.821E-13 7.051E-08 1.668E-27
 ETOT  509  -795.75543047012    -9.095E-13 3.176E-08 2.928E-27
 ETOT  510  -795.75543047012     6.821E-13 7.050E-08 1.493E-27
 ETOT  511  -795.75543047012    -1.137E-13 3.175E-08 1.526E-27
 ETOT  512  -795.75543047012    -3.411E-13 7.047E-08 1.481E-27
 ETOT  513  -795.75543047012     7.958E-13 3.174E-08 3.381E-27
 ETOT  514  -795.75543047012     2.274E-13 7.044E-08 1.980E-27
 ETOT  515  -795.75543047012    -1.023E-12 3.172E-08 1.871E-27
 ETOT  516  -795.75543047012     1.364E-12 7.041E-08 1.685E-27
 ETOT  517  -795.75543047012    -7.958E-13 3.171E-08 1.602E-27
 ETOT  518  -795.75543047012     0.000E+00 7.037E-08 4.822E-27
 ETOT  519  -795.75543047012    -1.137E-13 3.169E-08 1.741E-27
 ETOT  520  -795.75543047012     2.274E-13 7.033E-08 3.044E-27
 ETOT  521  -795.75543047012     2.274E-13 3.167E-08 3.624E-27
 ETOT  522  -795.75543047012     2.274E-13 7.029E-08 9.258E-27
 ETOT  523  -795.75543047012     0.000E+00 3.165E-08 6.004E-27
 ETOT  524  -795.75543047012    -1.137E-13 7.023E-08 1.955E-27
 ETOT  525  -795.75543047012    -5.684E-13 3.162E-08 2.873E-27
 ETOT  526  -795.75543047012    -2.274E-13 7.018E-08 1.536E-27
 ETOT  527  -795.75543047012     6.821E-13 3.160E-08 3.645E-27
 ETOT  528  -795.75543047012    -9.095E-13 7.012E-08 4.470E-27
 ETOT  529  -795.75543047012     5.684E-13 3.157E-08 1.385E-27
 ETOT  530  -795.75543047012     3.411E-13 7.005E-08 8.349E-27
 ETOT  531  -795.75543047012    -9.095E-13 3.154E-08 3.280E-27
 ETOT  532  -795.75543047012     6.821E-13 6.998E-08 1.646E-27
 ETOT  533  -795.75543047012     0.000E+00 3.151E-08 2.391E-27
 ETOT  534  -795.75543047012    -2.274E-13 6.991E-08 1.597E-27
 ETOT  535  -795.75543047012    -6.821E-13 3.147E-08 1.550E-27
 ETOT  536  -795.75543047012     9.095E-13 6.983E-08 3.943E-27
 ETOT  537  -795.75543047012     1.137E-13 3.143E-08 1.328E-27
 ETOT  538  -795.75543047012    -2.274E-13 6.975E-08 3.760E-27
 ETOT  539  -795.75543047012    -3.411E-13 3.140E-08 1.440E-27
 ETOT  540  -795.75543047012     3.411E-13 6.966E-08 3.118E-27
 ETOT  541  -795.75543047012     0.000E+00 3.136E-08 2.550E-27
 ETOT  542  -795.75543047012    -3.411E-13 6.956E-08 2.650E-27
 ETOT  543  -795.75543047012     2.274E-13 3.131E-08 2.561E-27
 ETOT  544  -795.75543047012     1.137E-13 6.947E-08 1.015E-26
 ETOT  545  -795.75543047012     0.000E+00 3.127E-08 2.188E-27
 ETOT  546  -795.75543047012    -1.137E-13 6.937E-08 3.458E-27
 ETOT  547  -795.75543047012     0.000E+00 3.122E-08 1.669E-27
 ETOT  548  -795.75543047012    -7.958E-13 6.926E-08 1.331E-27
 ETOT  549  -795.75543047012     7.958E-13 3.117E-08 3.599E-27
 ETOT  550  -795.75543047012    -4.547E-13 6.915E-08 2.548E-27
 ETOT  551  -795.75543047012    -5.684E-13 3.112E-08 4.561E-27
 ETOT  552  -795.75543047012     1.933E-12 6.903E-08 1.485E-27
 ETOT  553  -795.75543047012    -1.023E-12 3.107E-08 1.400E-27
 ETOT  554  -795.75543047012    -7.958E-13 6.892E-08 2.407E-27
 ETOT  555  -795.75543047012     1.023E-12 3.102E-08 1.346E-27
 ETOT  556  -795.75543047012     0.000E+00 6.879E-08 2.074E-27
 ETOT  557  -795.75543047012     2.274E-13 3.096E-08 2.272E-27
 ETOT  558  -795.75543047012     2.274E-13 6.866E-08 1.975E-27
 ETOT  559  -795.75543047012     0.000E+00 3.090E-08 1.797E-27
 ETOT  560  -795.75543047012    -1.023E-12 6.853E-08 7.369E-27
 ETOT  561  -795.75543047012     3.411E-13 3.084E-08 3.829E-27
 ETOT  562  -795.75543047012    -2.274E-13 6.840E-08 2.285E-27
 ETOT  563  -795.75543047012     2.274E-13 3.078E-08 3.759E-27
 ETOT  564  -795.75543047012    -2.274E-13 6.825E-08 1.837E-27
 ETOT  565  -795.75543047012    -1.137E-13 3.071E-08 1.861E-27
 ETOT  566  -795.75543047012     4.547E-13 6.811E-08 4.350E-27
 ETOT  567  -795.75543047012    -3.411E-13 3.065E-08 1.715E-27
 ETOT  568  -795.75543047012    -4.547E-13 6.796E-08 1.786E-27
 ETOT  569  -795.75543047012    -1.137E-13 3.058E-08 1.595E-27
 ETOT  570  -795.75543047012     4.547E-13 6.781E-08 4.294E-27
 ETOT  571  -795.75543047012    -7.958E-13 3.051E-08 1.462E-27
 ETOT  572  -795.75543047012     9.095E-13 6.765E-08 2.181E-27
 ETOT  573  -795.75543047012    -5.684E-13 3.044E-08 3.618E-27
 ETOT  574  -795.75543047012    -9.095E-13 6.749E-08 1.131E-26
 ETOT  575  -795.75543047012     7.958E-13 3.037E-08 2.106E-27
 ETOT  576  -795.75543047012     1.137E-13 6.732E-08 2.647E-27
 ETOT  577  -795.75543047012     4.547E-13 3.029E-08 6.664E-27
 ETOT  578  -795.75543047012    -2.274E-13 6.715E-08 6.267E-27
 ETOT  579  -795.75543047012    -3.411E-13 3.021E-08 7.504E-27
 ETOT  580  -795.75543047012    -5.684E-13 6.698E-08 3.344E-27
 ETOT  581  -795.75543047012    -2.274E-13 3.014E-08 3.707E-27
 ETOT  582  -795.75543047012     6.821E-13 6.680E-08 1.450E-27
 ETOT  583  -795.75543047012    -6.821E-13 3.005E-08 1.892E-27
 ETOT  584  -795.75543047012     5.684E-13 6.662E-08 3.074E-27
 ETOT  585  -795.75543047012    -5.684E-13 2.997E-08 1.441E-27
 ETOT  586  -795.75543047012     6.821E-13 6.644E-08 2.182E-27
 ETOT  587  -795.75543047012    -3.411E-13 2.989E-08 1.578E-27
 ETOT  588  -795.75543047012    -3.411E-13 6.625E-08 2.013E-27
 ETOT  589  -795.75543047012     9.095E-13 2.980E-08 1.977E-27
 ETOT  590  -795.75543047012    -1.023E-12 6.606E-08 2.452E-27
 ETOT  591  -795.75543047012     2.274E-13 2.972E-08 2.752E-27
 ETOT  592  -795.75543047012     2.274E-13 6.586E-08 1.773E-27
 ETOT  593  -795.75543047012    -3.411E-13 2.963E-08 1.299E-27
 ETOT  594  -795.75543047013    -4.547E-13 6.566E-08 1.939E-27
 ETOT  595  -795.75543047013     0.000E+00 2.954E-08 4.479E-27
 ETOT  596  -795.75543047013    -4.547E-13 6.546E-08 1.875E-27
 ETOT  597  -795.75543047012     9.095E-13 2.945E-08 2.145E-27
 ETOT  598  -795.75543047012     0.000E+00 6.525E-08 1.352E-27
 ETOT  599  -795.75543047012    -2.274E-13 2.935E-08 4.020E-27
 ETOT  600  -795.75543047012    -1.137E-13 6.504E-08 1.695E-27
 ETOT  601  -795.75543047013    -1.137E-13 2.926E-08 2.468E-27
 ETOT  602  -795.75543047012     4.547E-13 6.483E-08 4.534E-27
 ETOT  603  -795.75543047012     2.274E-13 2.916E-08 2.196E-27
 ETOT  604  -795.75543047013    -1.364E-12 6.461E-08 2.289E-27
 ETOT  605  -795.75543047013     5.684E-13 2.906E-08 1.576E-27
 ETOT  606  -795.75543047013    -1.137E-13 6.439E-08 1.532E-27
 ETOT  607  -795.75543047013    -2.274E-13 2.896E-08 1.611E-27
 ETOT  608  -795.75543047013     1.137E-13 6.417E-08 3.152E-27
 ETOT  609  -795.75543047013     1.137E-13 2.886E-08 6.473E-27
 ETOT  610  -795.75543047013    -2.274E-13 6.394E-08 1.845E-27
 ETOT  611  -795.75543047013    -1.137E-13 2.876E-08 1.700E-27
 ETOT  612  -795.75543047013    -1.137E-13 6.371E-08 3.754E-27
 ETOT  613  -795.75543047013    -1.137E-13 2.865E-08 1.638E-27
 ETOT  614  -795.75543047013     4.547E-13 6.348E-08 1.840E-27
 ETOT  615  -795.75543047013    -3.411E-13 2.855E-08 3.068E-27
 ETOT  616  -795.75543047013     4.547E-13 6.324E-08 1.531E-27
 ETOT  617  -795.75543047013    -7.958E-13 2.844E-08 1.540E-27
 ETOT  618  -795.75543047013     6.821E-13 6.300E-08 1.683E-27
 ETOT  619  -795.75543047013    -1.592E-12 2.833E-08 6.257E-27
 ETOT  620  -795.75543047013     1.251E-12 6.276E-08 3.522E-27
 ETOT  621  -795.75543047013     4.547E-13 2.823E-08 6.203E-27
 ETOT  622  -795.75543047013    -4.547E-13 6.251E-08 7.252E-27
 ETOT  623  -795.75543047013     6.821E-13 2.811E-08 5.233E-27
 ETOT  624  -795.75543047013    -2.274E-13 6.227E-08 9.643E-27
 ETOT  625  -795.75543047013     2.274E-13 2.800E-08 2.837E-27
 ETOT  626  -795.75543047013    -2.274E-13 6.202E-08 1.792E-27
 ETOT  627  -795.75543047013    -9.095E-13 2.789E-08 1.940E-27
 ETOT  628  -795.75543047012     1.251E-12 6.176E-08 2.815E-27
 ETOT  629  -795.75543047013    -1.251E-12 2.777E-08 2.848E-27
 ETOT  630  -795.75543047013     1.137E-13 6.151E-08 2.954E-27
 ETOT  631  -795.75543047013    -5.684E-13 2.766E-08 1.587E-27
 ETOT  632  -795.75543047013    -4.547E-13 6.125E-08 1.646E-27
 ETOT  633  -795.75543047013     1.023E-12 2.754E-08 1.655E-27
 ETOT  634  -795.75543047013    -1.023E-12 6.098E-08 1.777E-27
 ETOT  635  -795.75543047013     7.958E-13 2.742E-08 1.868E-27
 ETOT  636  -795.75543047013     3.411E-13 6.072E-08 1.458E-27
 ETOT  637  -795.75543047013    -7.958E-13 2.731E-08 1.763E-27
 ETOT  638  -795.75543047013     3.411E-13 6.045E-08 3.209E-27
 ETOT  639  -795.75543047013    -3.411E-13 2.719E-08 2.311E-27
 ETOT  640  -795.75543047013     1.137E-13 6.019E-08 2.599E-27
 ETOT  641  -795.75543047013     2.274E-13 2.706E-08 1.489E-27
 ETOT  642  -795.75543047013     2.274E-13 5.991E-08 6.353E-27
 ETOT  643  -795.75543047013    -6.821E-13 2.694E-08 1.528E-27
 ETOT  644  -795.75543047013     4.547E-13 5.964E-08 4.309E-27
 ETOT  645  -795.75543047013    -1.137E-13 2.682E-08 3.284E-27
 ETOT  646  -795.75543047013    -9.095E-13 5.936E-08 1.720E-27
 ETOT  647  -795.75543047013     1.137E-13 2.669E-08 1.828E-27
 ETOT  648  -795.75543047013    -2.274E-13 5.909E-08 1.976E-27
 ETOT  649  -795.75543047013     4.547E-13 2.657E-08 3.206E-27
 ETOT  650  -795.75543047013    -7.958E-13 5.881E-08 1.626E-27
 ETOT  651  -795.75543047013     4.547E-13 2.644E-08 2.676E-27
 ETOT  652  -795.75543047013     3.411E-13 5.852E-08 4.788E-27
 ETOT  653  -795.75543047013     0.000E+00 2.631E-08 1.667E-27
 ETOT  654  -795.75543047013    -4.547E-13 5.824E-08 2.040E-27
 ETOT  655  -795.75543047013    -5.684E-13 2.619E-08 3.045E-27
 ETOT  656  -795.75543047013     3.411E-13 5.795E-08 3.524E-27
 ETOT  657  -795.75543047013     1.137E-13 2.606E-08 3.058E-27
 ETOT  658  -795.75543047013    -5.684E-13 5.766E-08 2.106E-27
 ETOT  659  -795.75543047013     1.023E-12 2.593E-08 3.305E-27
 ETOT  660  -795.75543047013    -6.821E-13 5.737E-08 3.373E-27
 ETOT  661  -795.75543047013     2.274E-13 2.580E-08 3.200E-27
 ETOT  662  -795.75543047013    -1.137E-12 5.708E-08 1.994E-27
 ETOT  663  -795.75543047013     1.478E-12 2.567E-08 2.000E-27
 ETOT  664  -795.75543047013    -6.821E-13 5.679E-08 5.069E-27
 ETOT  665  -795.75543047013    -2.274E-13 2.553E-08 5.468E-27
 ETOT  666  -795.75543047013     1.023E-12 5.649E-08 7.721E-27
 ETOT  667  -795.75543047013    -9.095E-13 2.540E-08 2.305E-27
 ETOT  668  -795.75543047013     2.274E-13 5.620E-08 6.794E-27
 ETOT  669  -795.75543047013     1.137E-13 2.527E-08 2.538E-27
 ETOT  670  -795.75543047013    -4.547E-13 5.590E-08 5.772E-27
 ETOT  671  -795.75543047013    -1.137E-13 2.513E-08 2.162E-27
 ETOT  672  -795.75543047013    -5.684E-13 5.560E-08 2.151E-27
 ETOT  673  -795.75543047013     2.274E-13 2.500E-08 1.820E-27
 ETOT  674  -795.75543047013     1.137E-13 5.530E-08 1.647E-27
 ETOT  675  -795.75543047013    -1.137E-13 2.486E-08 1.779E-27
 ETOT  676  -795.75543047013     3.411E-13 5.499E-08 1.658E-27
 ETOT  677  -795.75543047013     0.000E+00 2.472E-08 4.150E-27
 ETOT  678  -795.75543047013    -3.411E-13 5.469E-08 1.700E-27
 ETOT  679  -795.75543047013     7.958E-13 2.459E-08 1.795E-27
 ETOT  680  -795.75543047013    -3.411E-13 5.438E-08 5.929E-27
 ETOT  681  -795.75543047013     2.274E-13 2.445E-08 9.716E-27
 ETOT  682  -795.75543047013     1.137E-13 5.408E-08 6.120E-27
 ETOT  683  -795.75543047013     1.137E-13 2.431E-08 1.730E-27
 ETOT  684  -795.75543047013    -2.274E-13 5.377E-08 7.946E-27
 ETOT  685  -795.75543047013    -2.274E-13 2.417E-08 4.617E-27
 ETOT  686  -795.75543047013     1.137E-13 5.346E-08 2.071E-27
 ETOT  687  -795.75543047013     1.137E-13 2.403E-08 2.403E-27
 ETOT  688  -795.75543047013     3.411E-13 5.315E-08 2.576E-27
 ETOT  689  -795.75543047013    -7.958E-13 2.389E-08 2.001E-27
 ETOT  690  -795.75543047013     7.958E-13 5.284E-08 2.710E-27
 ETOT  691  -795.75543047013    -3.411E-13 2.375E-08 2.135E-27
 ETOT  692  -795.75543047013     0.000E+00 5.252E-08 1.630E-27
 ETOT  693  -795.75543047013     1.137E-13 2.361E-08 1.864E-27
 ETOT  694  -795.75543047013    -1.137E-13 5.221E-08 1.532E-27
 ETOT  695  -795.75543047013     5.684E-13 2.347E-08 2.088E-27
 ETOT  696  -795.75543047013    -5.684E-13 5.190E-08 1.892E-27
 ETOT  697  -795.75543047013     1.137E-13 2.333E-08 4.716E-27
 ETOT  698  -795.75543047013     6.821E-13 5.158E-08 7.823E-27
 ETOT  699  -795.75543047013    -3.411E-13 2.319E-08 9.860E-27
 ETOT  700  -795.75543047013    -5.684E-13 5.127E-08 1.945E-27
 ETOT  701  -795.75543047013     1.137E-13 2.305E-08 1.677E-27
 ETOT  702  -795.75543047013     2.274E-13 5.095E-08 3.130E-27
 ETOT  703  -795.75543047013     3.411E-13 2.291E-08 4.562E-27
 ETOT  704  -795.75543047013    -1.137E-13 5.063E-08 2.350E-27
 ETOT  705  -795.75543047013     2.274E-13 2.276E-08 2.944E-27
 ETOT  706  -795.75543047013    -7.958E-13 5.032E-08 1.409E-27
 ETOT  707  -795.75543047013     4.547E-13 2.262E-08 2.035E-27
 ETOT  708  -795.75543047013    -7.958E-13 5.000E-08 2.554E-27
 ETOT  709  -795.75543047013     4.547E-13 2.248E-08 2.607E-27
 ETOT  710  -795.75543047013    -2.274E-13 4.968E-08 1.447E-27
 ETOT  711  -795.75543047013    -4.547E-13 2.233E-08 6.572E-27
 ETOT  712  -795.75543047013     4.547E-13 4.936E-08 7.416E-27
 ETOT  713  -795.75543047013    -7.958E-13 2.219E-08 2.382E-27
 ETOT  714  -795.75543047013     3.411E-13 4.904E-08 1.234E-26
 ETOT  715  -795.75543047013    -2.274E-13 2.205E-08 1.712E-27
 ETOT  716  -795.75543047013     6.821E-13 4.872E-08 1.669E-26
 ETOT  717  -795.75543047013     0.000E+00 2.190E-08 1.600E-26
 ETOT  718  -795.75543047013    -6.821E-13 4.840E-08 1.583E-27
 ETOT  719  -795.75543047013     1.137E-13 2.176E-08 3.161E-27
 ETOT  720  -795.75543047013     2.274E-13 4.808E-08 8.569E-27
 ETOT  721  -795.75543047013    -3.411E-13 2.161E-08 3.862E-27
 ETOT  722  -795.75543047013     6.821E-13 4.776E-08 4.214E-27
 ETOT  723  -795.75543047013    -3.411E-13 2.147E-08 1.639E-27
 ETOT  724  -795.75543047013     2.274E-13 4.744E-08 2.319E-27
 ETOT  725  -795.75543047013    -1.251E-12 2.132E-08 1.732E-27
 ETOT  726  -795.75543047013     9.095E-13 4.712E-08 2.254E-27
 ETOT  727  -795.75543047013    -6.821E-13 2.118E-08 2.357E-27
 ETOT  728  -795.75543047013     1.364E-12 4.680E-08 1.897E-27
 ETOT  729  -795.75543047013    -4.547E-13 2.104E-08 1.869E-27
 ETOT  730  -795.75543047013     2.274E-13 4.647E-08 6.328E-27
 ETOT  731  -795.75543047013    -1.137E-12 2.089E-08 4.738E-27
 ETOT  732  -795.75543047013     4.547E-13 4.615E-08 1.512E-27
 ETOT  733  -795.75543047013     1.137E-13 2.075E-08 7.494E-27
 ETOT  734  -795.75543047013     4.547E-13 4.583E-08 2.655E-27
 ETOT  735  -795.75543047013    -1.137E-13 2.060E-08 8.912E-27
 ETOT  736  -795.75543047013     0.000E+00 4.551E-08 2.104E-27
 ETOT  737  -795.75543047013    -1.137E-13 2.046E-08 1.389E-27
 ETOT  738  -795.75543047013     4.547E-13 4.519E-08 2.085E-27
 ETOT  739  -795.75543047013     4.547E-13 2.031E-08 1.582E-27
 ETOT  740  -795.75543047013    -6.821E-13 4.487E-08 1.571E-27
 ETOT  741  -795.75543047013     2.274E-13 2.017E-08 1.681E-27
 ETOT  742  -795.75543047013    -3.411E-13 4.455E-08 3.254E-27
 ETOT  743  -795.75543047013     6.821E-13 2.003E-08 7.123E-27
 ETOT  744  -795.75543047013    -5.684E-13 4.423E-08 3.518E-27
 ETOT  745  -795.75543047013     5.684E-13 1.988E-08 1.523E-27
 ETOT  746  -795.75543047013    -2.274E-13 4.391E-08 2.051E-27
 ETOT  747  -795.75543047013    -1.023E-12 1.974E-08 6.105E-27
 ETOT  748  -795.75543047013    -1.251E-12 4.359E-08 9.059E-27
 ETOT  749  -795.75543047013     2.046E-12 1.959E-08 4.779E-27
 ETOT  750  -795.75543047013    -2.274E-13 4.327E-08 2.639E-27
 ETOT  751  -795.75543047013    -4.547E-13 1.945E-08 3.197E-27
 ETOT  752  -795.75543047013     1.137E-13 4.295E-08 1.658E-27
 ETOT  753  -795.75543047013    -4.547E-13 1.931E-08 1.832E-27
 ETOT  754  -795.75543047013     1.364E-12 4.263E-08 2.622E-27
 ETOT  755  -795.75543047013    -2.274E-13 1.916E-08 1.410E-27
 ETOT  756  -795.75543047013    -7.958E-13 4.231E-08 1.378E-27
 ETOT  757  -795.75543047013     0.000E+00 1.902E-08 2.670E-27
 ETOT  758  -795.75543047013     6.821E-13 4.200E-08 1.475E-27
 ETOT  759  -795.75543047013    -6.821E-13 1.888E-08 2.761E-27
 ETOT  760  -795.75543047013     2.274E-13 4.168E-08 2.089E-27
 ETOT  761  -795.75543047013    -3.411E-13 1.874E-08 3.070E-27
 ETOT  762  -795.75543047013     1.137E-13 4.136E-08 1.628E-27
 ETOT  763  -795.75543047013     2.274E-13 1.859E-08 1.771E-27
 ETOT  764  -795.75543047013     0.000E+00 4.105E-08 2.465E-27
 ETOT  765  -795.75543047013    -9.095E-13 1.845E-08 3.846E-27
 ETOT  766  -795.75543047013     1.137E-12 4.073E-08 2.896E-27
 ETOT  767  -795.75543047013    -4.547E-13 1.831E-08 1.456E-27
 ETOT  768  -795.75543047013    -3.411E-13 4.042E-08 1.996E-27
 ETOT  769  -795.75543047013     3.411E-13 1.817E-08 2.659E-27
 ETOT  770  -795.75543047013    -2.274E-13 4.011E-08 1.509E-27
 ETOT  771  -795.75543047013     2.274E-13 1.803E-08 1.526E-27
 ETOT  772  -795.75543047013     0.000E+00 3.979E-08 2.096E-27
 ETOT  773  -795.75543047013    -1.137E-13 1.789E-08 4.951E-27
 ETOT  774  -795.75543047013    -3.411E-13 3.948E-08 1.438E-27
 ETOT  775  -795.75543047013     1.137E-13 1.775E-08 5.716E-27
 ETOT  776  -795.75543047013     5.684E-13 3.917E-08 3.305E-27
 ETOT  777  -795.75543047013    -1.137E-12 1.761E-08 2.159E-27
 ETOT  778  -795.75543047013     1.137E-13 3.886E-08 2.542E-27
 ETOT  779  -795.75543047013     6.821E-13 1.747E-08 1.692E-27
 ETOT  780  -795.75543047013    -3.411E-13 3.855E-08 3.863E-27
 ETOT  781  -795.75543047013     2.274E-13 1.733E-08 1.414E-27
 ETOT  782  -795.75543047013    -6.821E-13 3.824E-08 4.902E-27
 ETOT  783  -795.75543047013     2.274E-13 1.719E-08 2.980E-27
 ETOT  784  -795.75543047013     9.095E-13 3.794E-08 7.627E-27
 ETOT  785  -795.75543047013    -6.821E-13 1.705E-08 2.498E-27
 ETOT  786  -795.75543047013    -1.137E-13 3.763E-08 2.180E-27
 ETOT  787  -795.75543047013    -2.274E-13 1.691E-08 2.519E-27
 ETOT  788  -795.75543047013     1.137E-13 3.732E-08 1.710E-27
 ETOT  789  -795.75543047013    -1.137E-13 1.677E-08 1.453E-27
 ETOT  790  -795.75543047013    -5.684E-13 3.702E-08 4.150E-27
 ETOT  791  -795.75543047013     0.000E+00 1.664E-08 1.533E-27
 ETOT  792  -795.75543047013     1.137E-13 3.672E-08 1.518E-27
 ETOT  793  -795.75543047013     9.095E-13 1.650E-08 1.474E-27
 ETOT  794  -795.75543047013     1.137E-13 3.641E-08 1.844E-27
 ETOT  795  -795.75543047013    -5.684E-13 1.637E-08 1.340E-27
 ETOT  796  -795.75543047013     6.821E-13 3.611E-08 1.329E-27
 ETOT  797  -795.75543047013    -2.274E-13 1.623E-08 1.952E-27
 ETOT  798  -795.75543047013     1.137E-13 3.581E-08 1.461E-26
 ETOT  799  -795.75543047013    -3.411E-13 1.609E-08 4.507E-27
 ETOT  800  -795.75543047013     7.958E-13 3.551E-08 3.272E-27
 ETOT  801  -795.75543047013    -1.023E-12 1.596E-08 8.207E-27
 ETOT  802  -795.75543047013    -2.274E-13 3.522E-08 2.166E-27
 ETOT  803  -795.75543047013     2.274E-13 1.583E-08 3.085E-27
 ETOT  804  -795.75543047013    -1.137E-13 3.492E-08 2.682E-27
 ETOT  805  -795.75543047013     2.274E-13 1.569E-08 1.428E-27
 ETOT  806  -795.75543047013     5.684E-13 3.462E-08 1.940E-27
 ETOT  807  -795.75543047013    -7.958E-13 1.556E-08 2.414E-27
 ETOT  808  -795.75543047013     1.137E-12 3.433E-08 1.662E-27
 ETOT  809  -795.75543047013    -2.274E-13 1.543E-08 2.249E-27
 ETOT  810  -795.75543047013    -9.095E-13 3.404E-08 7.822E-27
 ETOT  811  -795.75543047013     5.684E-13 1.530E-08 3.407E-27
 ETOT  812  -795.75543047013     0.000E+00 3.375E-08 1.548E-27
 ETOT  813  -795.75543047013     0.000E+00 1.516E-08 3.947E-27
 ETOT  814  -795.75543047013     1.023E-12 3.346E-08 2.317E-26
 ETOT  815  -795.75543047013    -1.478E-12 1.503E-08 5.170E-27
 ETOT  816  -795.75543047013     5.684E-13 3.317E-08 6.596E-27
 ETOT  817  -795.75543047013     0.000E+00 1.490E-08 1.741E-27
 ETOT  818  -795.75543047013    -1.023E-12 3.288E-08 3.253E-27
 ETOT  819  -795.75543047013     1.251E-12 1.477E-08 4.895E-27
 ETOT  820  -795.75543047013    -5.684E-13 3.259E-08 1.910E-27
 ETOT  821  -795.75543047013     5.684E-13 1.465E-08 1.320E-27
 ETOT  822  -795.75543047013    -5.684E-13 3.231E-08 2.178E-27
 ETOT  823  -795.75543047013    -1.137E-13 1.452E-08 1.266E-27
 ETOT  824  -795.75543047013    -2.274E-13 3.202E-08 1.437E-27
 ETOT  825  -795.75543047013     4.547E-13 1.439E-08 2.022E-27
 ETOT  826  -795.75543047013    -4.547E-13 3.174E-08 1.194E-27
 ETOT  827  -795.75543047013     7.958E-13 1.426E-08 1.481E-27
 ETOT  828  -795.75543047013     1.137E-13 3.146E-08 4.394E-27
 ETOT  829  -795.75543047013    -1.023E-12 1.414E-08 3.791E-27
 ETOT  830  -795.75543047013     1.023E-12 3.118E-08 6.372E-27
 ETOT  831  -795.75543047013    -5.684E-13 1.401E-08 2.803E-27
 ETOT  832  -795.75543047013     1.137E-13 3.091E-08 2.802E-27
 ETOT  833  -795.75543047013     5.684E-13 1.389E-08 2.649E-27
 ETOT  834  -795.75543047013     0.000E+00 3.063E-08 3.229E-27
 ETOT  835  -795.75543047013     3.411E-13 1.376E-08 2.407E-27
 ETOT  836  -795.75543047013    -6.821E-13 3.035E-08 1.815E-27
 ETOT  837  -795.75543047013    -2.274E-13 1.364E-08 1.392E-27
 ETOT  838  -795.75543047013    -1.137E-13 3.008E-08 1.589E-27
 ETOT  839  -795.75543047013    -1.137E-13 1.351E-08 1.229E-27
 ETOT  840  -795.75543047013     4.547E-13 2.981E-08 5.121E-27
 ETOT  841  -795.75543047013     0.000E+00 1.339E-08 1.290E-27
 ETOT  842  -795.75543047013    -3.411E-13 2.954E-08 4.256E-27
 ETOT  843  -795.75543047013     4.547E-13 1.327E-08 4.276E-27
 ETOT  844  -795.75543047013    -2.274E-13 2.927E-08 4.939E-27
 ETOT  845  -795.75543047013    -2.274E-13 1.315E-08 3.640E-27
 ETOT  846  -795.75543047013     3.411E-13 2.900E-08 1.308E-27
[...]
                       4.58333333E-01  2.91666667E-01  3.75000000E-01
                       3.75000000E-01  3.75000000E-01  3.75000000E-01
                       4.58333333E-01  3.75000000E-01  3.75000000E-01
                       4.58333333E-01  4.58333333E-01  3.75000000E-01
              kpt2     5.00000000E-01  5.00000000E-01  0.00000000E+00
                       4.50000000E-01  4.50000000E-01  5.00000000E-02
                       4.00000000E-01  4.00000000E-01  1.00000000E-01
                       3.50000000E-01  3.50000000E-01  1.50000000E-01
                       3.00000000E-01  3.00000000E-01  2.00000000E-01
                       2.50000000E-01  2.50000000E-01  2.50000000E-01
                       2.00000000E-01  2.00000000E-01  3.00000000E-01
                       1.50000000E-01  1.50000000E-01  3.50000000E-01
                       1.00000000E-01  1.00000000E-01  4.00000000E-01
                       5.00000000E-02  5.00000000E-02  4.50000000E-01
                       0.00000000E+00  0.00000000E+00  5.00000000E-01
                       0.00000000E+00  0.00000000E+00  4.58333333E-01
                       0.00000000E+00  0.00000000E+00  4.16666667E-01
                       0.00000000E+00  0.00000000E+00  3.75000000E-01
                       0.00000000E+00  0.00000000E+00  3.33333333E-01
                       0.00000000E+00  0.00000000E+00  2.91666667E-01
                       0.00000000E+00  0.00000000E+00  2.50000000E-01
                       0.00000000E+00  0.00000000E+00  2.08333333E-01
                       0.00000000E+00  0.00000000E+00  1.66666667E-01
                       0.00000000E+00  0.00000000E+00  1.25000000E-01
                       0.00000000E+00  0.00000000E+00  8.33333333E-02
                       0.00000000E+00  0.00000000E+00  4.16666667E-02
                       0.00000000E+00  0.00000000E+00  0.00000000E+00
                       2.77777778E-02  2.77777778E-02  2.77777778E-02
                       5.55555556E-02  5.55555556E-02  5.55555556E-02
                       8.33333333E-02  8.33333333E-02  8.33333333E-02
                       1.11111111E-01  1.11111111E-01  1.11111111E-01
                       1.38888889E-01  1.38888889E-01  1.38888889E-01
                       1.66666667E-01  1.66666667E-01  1.66666667E-01
                       1.94444444E-01  1.94444444E-01  1.94444444E-01
                       2.22222222E-01  2.22222222E-01  2.22222222E-01
                       2.50000000E-01  2.50000000E-01  2.50000000E-01
                       2.77777778E-01  2.77777778E-01  2.77777778E-01
                       3.05555556E-01  3.05555556E-01  3.05555556E-01
                       3.33333333E-01  3.33333333E-01  3.33333333E-01
                       3.61111111E-01  3.61111111E-01  3.61111111E-01
                       3.88888889E-01  3.88888889E-01  3.88888889E-01
                       4.16666667E-01  4.16666667E-01  4.16666667E-01
                       4.44444444E-01  4.44444444E-01  4.44444444E-01
                       4.72222222E-01  4.72222222E-01  4.72222222E-01
                       5.00000000E-01  5.00000000E-01  5.00000000E-01
                       4.37500000E-01  5.00000000E-01  5.00000000E-01
                       3.75000000E-01  5.00000000E-01  5.00000000E-01
                       3.12500000E-01  5.00000000E-01  5.00000000E-01
                       2.50000000E-01  5.00000000E-01  5.00000000E-01
                       1.87500000E-01  5.00000000E-01  5.00000000E-01
                       1.25000000E-01  5.00000000E-01  5.00000000E-01
                       6.25000000E-02  5.00000000E-01  5.00000000E-01
                       0.00000000E+00  5.00000000E-01  5.00000000E-01
                       0.00000000E+00  5.00000000E-01  4.37500000E-01
              kpt3     4.16666667E-02  4.16666667E-02  1.25000000E-01
                       1.25000000E-01  4.16666667E-02  1.25000000E-01
                       2.08333333E-01  4.16666667E-02  1.25000000E-01
                       2.91666667E-01  4.16666667E-02  1.25000000E-01
                       3.75000000E-01  4.16666667E-02  1.25000000E-01
                       4.58333333E-01  4.16666667E-02  1.25000000E-01
                       1.25000000E-01  1.25000000E-01  1.25000000E-01
                       2.08333333E-01  1.25000000E-01  1.25000000E-01
                       2.91666667E-01  1.25000000E-01  1.25000000E-01
                       3.75000000E-01  1.25000000E-01  1.25000000E-01
                       4.58333333E-01  1.25000000E-01  1.25000000E-01
                       2.08333333E-01  2.08333333E-01  1.25000000E-01
                       2.91666667E-01  2.08333333E-01  1.25000000E-01
                       3.75000000E-01  2.08333333E-01  1.25000000E-01
                       4.58333333E-01  2.08333333E-01  1.25000000E-01
                       2.91666667E-01  2.91666667E-01  1.25000000E-01
                       3.75000000E-01  2.91666667E-01  1.25000000E-01
                       4.58333333E-01  2.91666667E-01  1.25000000E-01
                       3.75000000E-01  3.75000000E-01  1.25000000E-01
                       4.58333333E-01  3.75000000E-01  1.25000000E-01
                       4.58333333E-01  4.58333333E-01  1.25000000E-01
                       4.16666667E-02  4.16666667E-02  3.75000000E-01
                       1.25000000E-01  4.16666667E-02  3.75000000E-01
                       2.08333333E-01  4.16666667E-02  3.75000000E-01
                       2.91666667E-01  4.16666667E-02  3.75000000E-01
                       3.75000000E-01  4.16666667E-02  3.75000000E-01
                       4.58333333E-01  4.16666667E-02  3.75000000E-01
                       1.25000000E-01  1.25000000E-01  3.75000000E-01
                       2.08333333E-01  1.25000000E-01  3.75000000E-01
                       2.91666667E-01  1.25000000E-01  3.75000000E-01
                       3.75000000E-01  1.25000000E-01  3.75000000E-01
                       4.58333333E-01  1.25000000E-01  3.75000000E-01
                       2.08333333E-01  2.08333333E-01  3.75000000E-01
                       2.91666667E-01  2.08333333E-01  3.75000000E-01
                       3.75000000E-01  2.08333333E-01  3.75000000E-01
                       4.58333333E-01  2.08333333E-01  3.75000000E-01
                       2.91666667E-01  2.91666667E-01  3.75000000E-01
                       3.75000000E-01  2.91666667E-01  3.75000000E-01
                       4.58333333E-01  2.91666667E-01  3.75000000E-01
                       3.75000000E-01  3.75000000E-01  3.75000000E-01
                       4.58333333E-01  3.75000000E-01  3.75000000E-01
                       4.58333333E-01  4.58333333E-01  3.75000000E-01
                       outvar_i_n : Printing only first  50 k-points.
           kptopt1          1
           kptopt2         -5
           kptopt3          1
         kptrlatt       12    0    0      0   12    0      0    0    4
          kptrlen1     9.31491802E+01
          kptrlen2     3.00000000E+01
          kptrlen3     9.31491802E+01
P           mkmem1         11
P           mkmem2         15
P           mkmem3         11
            natom           8
           natsph3       2
            nband1         68
            nband2         68
            nband3         68
           nbdbuf1          0
           nbdbuf2          2
           nbdbuf3          2
           ndtset           3
            ngfft          36      36     144
             nkpt1         42
             nkpt2         57
             nkpt3         42
            nstep1       1000
            nstep2        300
            nstep3        300
             nsym          16
           ntypat           2
              occ      2.000000  2.000000  2.000000  2.000000  2.000000  2.000000
                       2.000000  2.000000  2.000000  2.000000  2.000000  2.000000
                       2.000000  2.000000  2.000000  2.000000  2.000000  2.000000
                       2.000000  2.000000  2.000000  2.000000  2.000000  2.000000
                       2.000000  2.000000  2.000000  2.000000  2.000000  2.000000
                       2.000000  2.000000  2.000000  2.000000  2.000000  2.000000
                       2.000000  2.000000  2.000000  2.000000  2.000000  2.000000
                       2.000000  2.000000  2.000000  2.000000  2.000000  2.000000
                       2.000000  2.000000  2.000000  2.000000  2.000000  2.000000
                       2.000000  2.000000  2.000000  2.000000  2.000000  2.000000
                       0.000000  0.000000  0.000000  0.000000  0.000000  0.000000
                       0.000000  0.000000
           prtcif           1
           prtdos1          0
           prtdos2          0
           prtdos3          3
            rprim      1.0000000000E+00  0.0000000000E+00  0.0000000000E+00
                       0.0000000000E+00  1.0000000000E+00  0.0000000000E+00
                       0.0000000000E+00  0.0000000000E+00  4.2647429147E+00
           shiftk      5.00000000E-01  5.00000000E-01  5.00000000E-01
          spgroup         129
           strten1     1.1478239198E-02  1.1478239198E-02  1.1332480627E-02
                       0.0000000000E+00  0.0000000000E+00  0.0000000000E+00
           symrel      1  0  0   0  1  0   0  0  1      -1  0  0   0 -1  0   0  0 -1
                      -1  0  0   0  1  0   0  0 -1       1  0  0   0 -1  0   0  0  1
                      -1  0  0   0 -1  0   0  0  1       1  0  0   0  1  0   0  0 -1
                       1  0  0   0 -1  0   0  0 -1      -1  0  0   0  1  0   0  0  1
                       0  1  0   1  0  0   0  0  1       0 -1  0  -1  0  0   0  0 -1
                       0 -1  0   1  0  0   0  0 -1       0  1  0  -1  0  0   0  0  1
                       0 -1  0  -1  0  0   0  0  1       0  1  0   1  0  0   0  0 -1
                       0  1  0  -1  0  0   0  0 -1       0 -1  0   1  0  0   0  0  1
            tnons      0.0000000  0.0000000  0.0000000     0.5000000  0.5000000  0.0000000
                       0.5000000  0.5000000  0.0000000     0.0000000  0.0000000  0.0000000
                      -0.0000000  0.0000000  0.0000000     0.5000000  0.5000000  0.0000000
                       0.5000000  0.5000000  0.0000000    -0.0000000  0.0000000  0.0000000
                       0.5000000  0.5000000  0.0000000     0.0000000 -0.0000000  0.0000000
                       0.0000000 -0.0000000  0.0000000     0.5000000  0.5000000  0.0000000
                       0.5000000  0.5000000  0.0000000     0.0000000  0.0000000  0.0000000
                       0.0000000  0.0000000  0.0000000     0.5000000  0.5000000  0.0000000
           tolwfr      1.00000000E-20
            typat      1  1  1  1  2  2  2  2
           vdw_xc           5
              wtk1       0.01389    0.02778    0.02778    0.02778    0.02778    0.02778
                         0.01389    0.02778    0.02778    0.02778    0.02778    0.01389
                         0.02778    0.02778    0.02778    0.01389    0.02778    0.02778
                         0.01389    0.02778    0.01389    0.01389    0.02778    0.02778
                         0.02778    0.02778    0.02778    0.01389    0.02778    0.02778
                         0.02778    0.02778    0.01389    0.02778    0.02778    0.02778
                         0.01389    0.02778    0.02778    0.01389    0.02778    0.01389
              wtk2       1.00000    1.00000    1.00000    1.00000    1.00000    1.00000
                         1.00000    1.00000    1.00000    1.00000    1.00000    1.00000
                         1.00000    1.00000    1.00000    1.00000    1.00000    1.00000
                         1.00000    1.00000    1.00000    1.00000    1.00000    1.00000
                         1.00000    1.00000    1.00000    1.00000    1.00000    1.00000
                         1.00000    1.00000    1.00000    1.00000    1.00000    1.00000
                         1.00000    1.00000    1.00000    1.00000    1.00000    1.00000
                         1.00000    1.00000    1.00000    1.00000    1.00000    1.00000
                         1.00000    1.00000
              wtk3       0.01389    0.02778    0.02778    0.02778    0.02778    0.02778
                         0.01389    0.02778    0.02778    0.02778    0.02778    0.01389
                         0.02778    0.02778    0.02778    0.01389    0.02778    0.02778
                         0.01389    0.02778    0.01389    0.01389    0.02778    0.02778
                         0.02778    0.02778    0.02778    0.01389    0.02778    0.02778
                         0.02778    0.02778    0.01389    0.02778    0.02778    0.02778
                         0.01389    0.02778    0.02778    0.01389    0.02778    0.01389
                       outvars : Printing only first  50 k-points.
           xangst      2.0538509643E+00  0.0000000000E+00  4.6664702533E+00
                       0.0000000000E+00  2.0538509643E+00  7.4160889198E+00
                       2.0538509643E+00  0.0000000000E+00  1.0102203775E+01
                       0.0000000000E+00  2.0538509643E+00  1.2851822442E+01
                       0.0000000000E+00  2.0538509643E+00  4.6982309179E+00
                       2.0538509643E+00  0.0000000000E+00  7.3843282551E+00
                       0.0000000000E+00  2.0538509643E+00  1.0133964440E+01
                       2.0538509643E+00  0.0000000000E+00  1.2820061777E+01
            xcart      3.8812158402E+00  0.0000000000E+00  8.8183507859E+00
                       0.0000000000E+00  3.8812158402E+00  1.4014377036E+01
                       3.8812158402E+00  0.0000000000E+00  1.9090398474E+01
                       0.0000000000E+00  3.8812158402E+00  2.4286424724E+01
                       0.0000000000E+00  3.8812158402E+00  8.8783697439E+00
                       3.8812158402E+00  0.0000000000E+00  1.3954358078E+01
                       0.0000000000E+00  3.8812158402E+00  1.9150417432E+01
                       3.8812158402E+00  0.0000000000E+00  2.4226405766E+01
             xred      5.0000000000E-01  0.0000000000E+00  2.6637700000E-01
                       0.0000000000E+00  5.0000000000E-01  4.2333400000E-01
                       5.0000000000E-01  0.0000000000E+00  5.7666600000E-01
                       0.0000000000E+00  5.0000000000E-01  7.3362300000E-01
                       0.0000000000E+00  5.0000000000E-01  2.6819000000E-01
                       5.0000000000E-01  0.0000000000E+00  4.2152100000E-01
                       0.0000000000E+00  5.0000000000E-01  5.7847900000E-01
                       5.0000000000E-01  0.0000000000E+00  7.3181000000E-01
            znucl       50.00000   34.00000

================================================================================


- Timing analysis has been suppressed with timopt=0



================================================================================

 Suggested references for the acknowledgment of ABINIT usage.

 The users of ABINIT have little formal obligations with respect to the ABINIT group
 (those specified in the GNU General Public License, http://www.gnu.org/copyleft/gpl.txt).
 However, it is common practice in the scientific literature,
 to acknowledge the efforts of people that have made the research possible.
 In this spirit, please find below suggested citations of work written by ABINIT developers,
 corresponding to implementations inside of ABINIT that you have used in the present run.
 Note also that it will be of great value to readers of publications presenting these results,
 to read papers enabling them to understand the theoretical formalism and details
 of the ABINIT implementation.
 For information on why they are suggested, see also https://docs.abinit.org/theory/acknowledgments.
-
- [1] Libxc: A library of exchange and correlation functionals for density functional theory.
- M.A.L. Marques, M.J.T. Oliveira, T. Burnus, Computer Physics Communications 183, 2227 (2012).
- Comment: to be cited when LibXC is used (negative value of ixc)
- Strong suggestion to cite this paper.
- DOI and bibtex: see https://docs.abinit.org/theory/bibliography/#marques2012
-
- [2] The Abinit project: Impact, environment and recent developments.
- Computer Phys. Comm. 248, 107042 (2020).
- X.Gonze, B. Amadon, G. Antonius, F.Arnardi, L.Baguet, J.-M.Beuken,
- J.Bieder, F.Bottin, J.Bouchet, E.Bousquet, N.Brouwer, F.Bruneval,
- G.Brunin, T.Cavignac, J.-B. Charraud, Wei Chen, M.Cote, S.Cottenier,
- J.Denier, G.Geneste, Ph.Ghosez, M.Giantomassi, Y.Gillet, O.Gingras,
- D.R.Hamann, G.Hautier, Xu He, N.Helbig, N.Holzwarth, Y.Jia, F.Jollet,
- W.Lafargue-Dit-Hauret, K.Lejaeghere, M.A.L.Marques, A.Martin, C.Martins,
- H.P.C. Miranda, F.Naccarato, K. Persson, G.Petretto, V.Planes, Y.Pouillon,
- S.Prokhorenko, F.Ricci, G.-M.Rignanese, A.H.Romero, M.M.Schmitt, M.Torrent,
- M.J.van Setten, B.Van Troeye, M.J.Verstraete, G.Zerah and J.W.Zwanzig
- Comment: the fifth generic paper describing the ABINIT project.
- Note that a version of this paper, that is not formatted for Computer Phys. Comm. 
- is available at https://www.abinit.org/sites/default/files/ABINIT20.pdf .
- The licence allows the authors to put it on the Web.
- DOI and bibtex: see https://docs.abinit.org/theory/bibliography/#gonze2020
-
- [3] Optimized norm-conserving Vanderbilt pseudopotentials.
- D.R. Hamann, Phys. Rev. B 88, 085117 (2013).
- Comment: Some pseudopotential generated using the ONCVPSP code were used.
- DOI and bibtex: see https://docs.abinit.org/theory/bibliography/#hamann2013
-
- [4] ABINIT: Overview, and focus on selected capabilities
- J. Chem. Phys. 152, 124102 (2020).
- A. Romero, D.C. Allan, B. Amadon, G. Antonius, T. Applencourt, L.Baguet,
- J.Bieder, F.Bottin, J.Bouchet, E.Bousquet, F.Bruneval,
- G.Brunin, D.Caliste, M.Cote,
- J.Denier, C. Dreyer, Ph.Ghosez, M.Giantomassi, Y.Gillet, O.Gingras,
- D.R.Hamann, G.Hautier, F.Jollet, G. Jomard,
- A.Martin, 
- H.P.C. Miranda, F.Naccarato, G.Petretto, N.A. Pike, V.Planes,
- S.Prokhorenko, T. Rangel, F.Ricci, G.-M.Rignanese, M.Royo, M.Stengel, M.Torrent,
- M.J.van Setten, B.Van Troeye, M.J.Verstraete, J.Wiktor, J.W.Zwanziger, and X.Gonze.
- Comment: a global overview of ABINIT, with focus on selected capabilities .
- Note that a version of this paper, that is not formatted for J. Chem. Phys 
- is available at https://www.abinit.org/sites/default/files/ABINIT20_JPC.pdf .
- The licence allows the authors to put it on the Web.
- DOI and bibtex: see https://docs.abinit.org/theory/bibliography/#romero2020
-
- [5] Recent developments in the ABINIT software package.
- Computer Phys. Comm. 205, 106 (2016).
- X.Gonze, F.Jollet, F.Abreu Araujo, D.Adams, B.Amadon, T.Applencourt,
- C.Audouze, J.-M.Beuken, J.Bieder, A.Bokhanchuk, E.Bousquet, F.Bruneval
- D.Caliste, M.Cote, F.Dahm, F.Da Pieve, M.Delaveau, M.Di Gennaro,
- B.Dorado, C.Espejo, G.Geneste, L.Genovese, A.Gerossier, M.Giantomassi,
- Y.Gillet, D.R.Hamann, L.He, G.Jomard, J.Laflamme Janssen, S.Le Roux,
- A.Levitt, A.Lherbier, F.Liu, I.Lukacevic, A.Martin, C.Martins,
- M.J.T.Oliveira, S.Ponce, Y.Pouillon, T.Rangel, G.-M.Rignanese,
- A.H.Romero, B.Rousseau, O.Rubel, A.A.Shukri, M.Stankovski, M.Torrent,
- M.J.Van Setten, B.Van Troeye, M.J.Verstraete, D.Waroquier, J.Wiktor,
- B.Xu, A.Zhou, J.W.Zwanziger.
- Comment: the fourth generic paper describing the ABINIT project.
- Note that a version of this paper, that is not formatted for Computer Phys. Comm. 
- is available at https://www.abinit.org/sites/default/files/ABINIT16.pdf .
- The licence allows the authors to put it on the Web.
- DOI and bibtex: see https://docs.abinit.org/theory/bibliography/#gonze2016
-
- Proc.   0 individual time (sec): cpu=      11544.0  wall=      11544.5

================================================================================

 Calculation completed.
.Delivered   1 WARNINGs and   0 COMMENTs to log file.
+Overall time at end (sec) : cpu=      46176.5  wall=      46177.8
