
.Version 9.2.2 of ABINIT 
.(MPI version, prepared for a x86_64_linux_gnu9.3 computer) 

.Copyright (C) 1998-2020 ABINIT group . 
 ABINIT comes with ABSOLUTELY NO WARRANTY.
 It is free software, and you are welcome to redistribute it
 under certain conditions (GNU General Public License,
 see ~abinit/COPYING or http://www.gnu.org/copyleft/gpl.txt).

 ABINIT is a project of the Universite Catholique de Louvain,
 Corning Inc. and other collaborators, see ~abinit/doc/developers/contributors.txt .
 Please read https://docs.abinit.org/theory/acknowledgments for suggested
 acknowledgments of the ABINIT effort.
 For more information, see https://www.abinit.org .

.Starting date : Sat 16 Mar 2024.
- ( at 16h00 )
  
- The starting date is more than 3 years after the initial release
- of this version of ABINIT, namely Nov 2020.
- This version of ABINIT is not supported anymore.
- Action: please, switch to a more recent version of ABINIT.
- input  file    -> Cs2TiI6.in
- output file    -> Cs2TiI6.out
- root for input  files -> Cs2TiI6i
- root for output files -> Cs2TiI6o


 Symmetries : space group P4 m m (# 99); Bravais tP (primitive tetrag.)
================================================================================
 Values of the parameters that define the memory need of the present run
     intxc =       0    ionmov =       0      iscf =      17    lmnmax =       6
     lnmax =       6     mgfft =     216  mpssoang =       3    mqgrid =   10623
     natom =      14  nloc_mem =       1    nspden =       1   nspinor =       1
    nsppol =       1      nsym =       8    n1xccc =    2501    ntypat =       3
    occopt =       1   xclevel =       2
-    mband =         113        mffmem =           1         mkmem =           2
       mpw =       15330          nfft =      279936          nkpt =           6
================================================================================
P This job should need less than                     154.077 Mbytes of memory.
  Rough estimation (10% accuracy) of disk space for files :
_ WF disk file :    158.598 Mbytes ; DEN or POT disk file :      2.138 Mbytes.
================================================================================

--------------------------------------------------------------------------------
------------- Echo of variables that govern the present computation ------------
--------------------------------------------------------------------------------
-
- outvars: echo of selected default values                                      
-   iomode0 =  0 , fftalg0 =112 , wfoptalg0 =  0
-
- outvars: echo of global parameters not present in the input file              
-  max_nthreads =    0
-
 -outvars: echo values of preprocessed input variables --------
            acell      7.7624316804E+00  7.7624316804E+00  4.9749252058E+01 Bohr
              amu      1.18710000E+02  7.89600000E+01  6.53900000E+01
           diemac      1.20000000E+01
             ecut      2.25000000E+01 Hartree
-          fftalg         112
             iscf          17
              ixc          11
              kpt      8.33333333E-02  8.33333333E-02  5.00000000E-01
                       2.50000000E-01  8.33333333E-02  5.00000000E-01
                       4.16666667E-01  8.33333333E-02  5.00000000E-01
                       2.50000000E-01  2.50000000E-01  5.00000000E-01
                       4.16666667E-01  2.50000000E-01  5.00000000E-01
                       4.16666667E-01  4.16666667E-01  5.00000000E-01
         kptrlatt        6    0    0      0    6    0      0    0    1
          kptrlen      4.65745901E+01
P           mkmem           2
            natom          14
            nband         113
            ngfft          36      36     216
             nkpt           6
            nstep         150
             nsym           8
           ntypat           3
              occ      2.000000  2.000000  2.000000  2.000000  2.000000  2.000000
                       2.000000  2.000000  2.000000  2.000000  2.000000  2.000000
                       2.000000  2.000000  2.000000  2.000000  2.000000  2.000000
                       2.000000  2.000000  2.000000  2.000000  2.000000  2.000000
                       2.000000  2.000000  2.000000  2.000000  2.000000  2.000000
                       2.000000  2.000000  2.000000  2.000000  2.000000  2.000000
                       2.000000  2.000000  2.000000  2.000000  2.000000  2.000000
                       2.000000  2.000000  2.000000  2.000000  2.000000  2.000000
                       2.000000  2.000000  2.000000  2.000000  2.000000  2.000000
                       2.000000  2.000000  2.000000  2.000000  2.000000  2.000000
                       2.000000  2.000000  2.000000  2.000000  2.000000  2.000000
                       2.000000  2.000000  2.000000  2.000000  2.000000  2.000000
                       2.000000  2.000000  2.000000  2.000000  2.000000  2.000000
                       2.000000  2.000000  2.000000  2.000000  2.000000  2.000000
                       2.000000  2.000000  2.000000  2.000000  2.000000  2.000000
                       2.000000  2.000000  2.000000  2.000000  2.000000  2.000000
                       2.000000  2.000000  2.000000  2.000000  2.000000  2.000000
                       2.000000  2.000000  2.000000  2.000000  2.000000  2.000000
                       2.000000  2.000000  2.000000  0.000000  0.000000
           prtcif           1
            prtwf           0
           shiftk      5.00000000E-01  5.00000000E-01  5.00000000E-01
          spgroup          99
           symrel      1  0  0   0  1  0   0  0  1       1  0  0   0 -1  0   0  0  1
                      -1  0  0   0 -1  0   0  0  1      -1  0  0   0  1  0   0  0  1
                       0  1  0   1  0  0   0  0  1       0  1  0  -1  0  0   0  0  1
                       0 -1  0  -1  0  0   0  0  1       0 -1  0   1  0  0   0  0  1
            tnons      0.0000000  0.0000000  0.0000000     0.0000000 -0.0000000  0.0000000
                      -0.0000000 -0.0000000  0.0000000    -0.0000000  0.0000000  0.0000000
                       0.5000000  0.5000000  0.0000000     0.5000000  0.5000000  0.0000000
                       0.5000000  0.5000000  0.0000000     0.5000000  0.5000000  0.0000000
           toldfe      1.00000000E-06 Hartree
            typat      1  1  1  1  1  2  2  2  2  2  2  2  3  3
           vdw_xc           5
              wtk        0.11111    0.22222    0.22222    0.11111    0.22222    0.11111
           xangst      2.0538509642E+00 -1.0000005802E-10  4.6664681475E+00
                      -1.0000005802E-10  2.0538509642E+00  7.4160979620E+00
                       2.0538509642E+00 -1.0000005802E-10  1.0102196638E+01
                      -1.0000005802E-10  2.0538509642E+00  1.2851826453E+01
                       2.0538509642E+00 -1.0000005802E-10  1.5537925129E+01
                      -1.0000005802E-10  2.0538509642E+00  4.6982333557E+00
                       2.0538509642E+00 -1.0000005802E-10  7.3843323929E+00
                      -1.0000005802E-10  2.0538509642E+00  1.0172602495E+01
                       2.0538509642E+00 -1.0000005802E-10  1.2868943588E+01
                      -1.0000005802E-10  2.0538509642E+00  1.5629057338E+01
                       2.0538509642E+00 -1.0000005802E-10  2.3324757732E+01
                      -1.0000005802E-10  2.0538509642E+00  2.6326170333E+01
                       2.0538509642E+00  2.0538509642E+00  2.4825464032E+01
                      -1.0000005802E-10 -1.0000005802E-10  2.4825464032E+01
            xcart      3.8812158400E+00 -1.8897272293E-10  8.8183468067E+00
                      -1.8897272293E-10  3.8812158400E+00  1.4014394123E+01
                       3.8812158400E+00 -1.8897272293E-10  1.9090384987E+01
                      -1.8897272293E-10  3.8812158400E+00  2.4286432303E+01
                       3.8812158400E+00 -1.8897272293E-10  2.9362423167E+01
                      -1.8897272293E-10  3.8812158400E+00  8.8783743507E+00
                       3.8812158400E+00 -1.8897272293E-10  1.3954365897E+01
                      -1.8897272293E-10  3.8812158400E+00  1.9223432773E+01
                       3.8812158400E+00 -1.8897272293E-10  2.4318779001E+01
                      -1.8897272293E-10  3.8812158400E+00  2.9534638085E+01
                       3.8812158400E+00 -1.8897272293E-10  4.4077404229E+01
                      -1.8897272293E-10  3.8812158400E+00  4.9749252058E+01
                       3.8812158400E+00  3.8812158400E+00  4.6913328143E+01
                      -1.8897272293E-10 -1.8897272293E-10  4.6913328143E+01
             xred      4.9999999998E-01 -2.4344526395E-11  1.7725586701E-01
                      -2.4344526395E-11  4.9999999998E-01  2.8170059937E-01
                       4.9999999998E-01 -2.4344526395E-11  3.8373210043E-01
                      -2.4344526395E-11  4.9999999998E-01  4.8817683278E-01
                       4.9999999998E-01 -2.4344526395E-11  5.9020833384E-01
                      -2.4344526395E-11  4.9999999998E-01  1.7846246895E-01
                       4.9999999998E-01 -2.4344526395E-11  2.8049398372E-01
                      -2.4344526395E-11  4.9999999998E-01  3.8640646800E-01
                       4.9999999998E-01 -2.4344526395E-11  4.8882702744E-01
                      -2.4344526395E-11  4.9999999998E-01  5.9366999227E-01
                       4.9999999998E-01 -2.4344526395E-11  8.8599129446E-01
                      -2.4344526395E-11  4.9999999998E-01  1.0000000000E+00
                       4.9999999998E-01  4.9999999998E-01  9.4299564722E-01
                      -2.4344526395E-11 -2.4344526395E-11  9.4299564722E-01
            znucl       50.00000   34.00000   30.00000

================================================================================

 chkinp: Checking input parameters for consistency.

================================================================================
== DATASET  1 ==================================================================
-   mpi_nproc: 4, omp_nthreads: -1 (-1 if OMP is not activated)


--- !DatasetInfo
iteration_state: {dtset: 1, }
dimensions: {natom: 14, nkpt: 6, mband: 113, nsppol: 1, nspinor: 1, nspden: 1, mpw: 15330, }
cutoff_energies: {ecut:  22.5, pawecutdg:  -1.0, }
electrons: {nelect:   2.22000000E+02, charge:   0.00000000E+00, occopt:   1.00000000E+00, tsmear:   1.00000000E-02, }
meta: {optdriver: 0, ionmov: 0, optcell: 0, iscf: 17, paral_kgb: 0, }
...

 Exchange-correlation functional for the present dataset will be:
  GGA: Perdew-Burke-Ernzerhof functional - ixc=11
 Citation for XC functional:
  J.P.Perdew, K.Burke, M.Ernzerhof, PRL 77, 3865 (1996)

 Real(R)+Recip(G) space primitive vectors, cartesian coordinates (Bohr,Bohr^-1):
 R(1)=  7.7624317  0.0000000  0.0000000  G(1)=  0.1288256  0.0000000  0.0000000
 R(2)=  0.0000000  7.7624317  0.0000000  G(2)=  0.0000000  0.1288256  0.0000000
 R(3)=  0.0000000  0.0000000 49.7492521  G(3)=  0.0000000  0.0000000  0.0201008
 Unit cell volume ucvol=  2.9976584E+03 bohr^3
 Angles (23,13,12)=  9.00000000E+01  9.00000000E+01  9.00000000E+01 degrees

 getcut: wavevector=  0.0000  0.0000  0.0000  ngfft=  36  36 216
         ecut(hartree)=     22.500   => boxcut(ratio)=   2.03334

--- Pseudopotential description ------------------------------------------------
- pspini: atom type   1  psp file is ../../../Psps_for_tests/ATOMICDATA_NC/Sn.psp8
- pspatm: opening atomic psp file    ../../../Psps_for_tests/ATOMICDATA_NC/Sn.psp8
- Sn    ONCVPSP  r_core=  2.27  2.62  1.86
- 50.00000  14.00000    150810                znucl, zion, pspdat
    8   11    2    4       600   0.00000      pspcod,pspxc,lmax,lloc,mmax,r2well
    5.99000000000000    6.50000000000000    0.00000000000000   rchrg,fchrg,qchrg
     nproj     2     2     2
     extension_switch     1
  pspatm : epsatm=   32.65190642
         --- l  ekb(1:nproj) -->
             0    5.462393    0.682281
             1    4.443814    0.825686
             2   -5.382195   -1.704077
 pspatm: atomic psp has been read  and splines computed

- pspini: atom type   2  psp file is ../../../Psps_for_tests/ATOMICDATA_NC/Se.psp8
- pspatm: opening atomic psp file    ../../../Psps_for_tests/ATOMICDATA_NC/Se.psp8
- Se    ONCVPSP  r_core=  1.82  1.50  1.91
- 34.00000  16.00000    150729                znucl, zion, pspdat
    8   11    2    4       600   0.00000      pspcod,pspxc,lmax,lloc,mmax,r2well
    5.99000000000000    5.00000000000000    0.00000000000000   rchrg,fchrg,qchrg
     nproj     2     2     2
     extension_switch     1
  pspatm : epsatm=   29.53325930
         --- l  ekb(1:nproj) -->
             0    8.612261    0.939919
             1    6.984962    1.281898
             2   -9.322521   -3.856218
 pspatm: atomic psp has been read  and splines computed

- pspini: atom type   3  psp file is ../../../Psps_for_tests/ATOMICDATA_NC/Zn.psp8
- pspatm: opening atomic psp file    ../../../Psps_for_tests/ATOMICDATA_NC/Zn.psp8
- Zn    ONCVPSP  r_core=  1.36  1.66  1.85
- 30.00000  20.00000    161102                znucl, zion, pspdat
    8   11    2    4       600   0.00000      pspcod,pspxc,lmax,lloc,mmax,r2well
    5.99000000000000    2.50000000000000    0.00000000000000   rchrg,fchrg,qchrg
     nproj     2     2     2
     extension_switch     1
  pspatm : epsatm=   26.67245340
         --- l  ekb(1:nproj) -->
             0    2.404235   -1.533451
             1   -4.677427   -1.530630
             2   -7.000316   -2.622858
 pspatm: atomic psp has been read  and splines computed

   9.39808704E+04                                ecore*ucvol(ha*bohr**3)
--------------------------------------------------------------------------------

_setup2: Arith. and geom. avg. npw (full set) are   15286.444   15286.432

================================================================================

--- !BeginCycle
iteration_state: {dtset: 1, }
solver: {iscf: 17, nstep: 150, nline: 4, wfoptalg: 0, }
tolerances: {toldfe: 1.00E-06, }
...

     iter   Etot(hartree)      deltaE(h)  residm     nres2
 ETOT  1  -1628.5901612805    -1.629E+03 7.657E-01 1.845E+03
 ETOT  2  -1760.4764758936    -1.319E+02 3.325E-01 6.663E+03
 ETOT  3  -1632.6709235485     1.278E+02 1.893E+01 2.018E+03
 ETOT  4  -1709.6958531826    -7.702E+01 1.688E+00 2.995E+03
 ETOT  5  -1647.1177579618     6.258E+01 2.156E+00 6.031E+02
 ETOT  6  -1650.1108336317    -2.993E+00 1.317E+00 4.955E+02
 ETOT  7  -1658.6354144894    -8.525E+00 6.397E-01 7.801E+02
 ETOT  8  -1660.6859097805    -2.050E+00 4.653E-02 8.778E+02
 ETOT  9  -1661.1306215282    -4.447E-01 1.127E-02 9.224E+02
 ETOT 10  -1662.0863142755    -9.557E-01 1.497E-01 5.148E+02
 ETOT 11  -1654.5064555490     7.580E+00 2.008E-01 2.210E+02
 ETOT 12  -1652.6208486061     1.886E+00 1.020E-01 1.063E+02
 ETOT 13  -1653.1701227535    -5.493E-01 3.836E-02 1.672E+02
 ETOT 14  -1656.5524021119    -3.382E+00 1.870E-01 1.249E+03
 ETOT 15  -1652.4764318482     4.076E+00 2.839E-01 1.295E+02
 ETOT 16  -1653.4743775236    -9.979E-01 4.530E-01 1.239E+02
 ETOT 17  -1652.0720907385     1.402E+00 1.236E-01 6.337E+01
 ETOT 18  -1652.3442408586    -2.722E-01 1.975E-02 4.165E+01
 ETOT 19  -1652.1842309915     1.600E-01 1.072E-02 2.545E+01
 ETOT 20  -1652.0656456750     1.186E-01 2.685E-02 1.087E+01
 ETOT 21  -1652.0222503263     4.340E-02 1.170E-02 7.756E+00
 ETOT 22  -1651.9042075160     1.180E-01 4.779E-03 5.470E-01
 ETOT 23  -1651.8982586583     5.949E-03 3.899E-03 2.417E-01
 ETOT 24  -1651.8989026342    -6.440E-04 9.141E-03 4.537E-02
 ETOT 25  -1651.8975942336     1.308E-03 1.216E-03 5.338E-03
 ETOT 26  -1651.8972284909     3.657E-04 2.466E-03 1.551E-03
 ETOT 27  -1651.8971650654     6.343E-05 3.637E-04 8.108E-04
 ETOT 28  -1651.8971036792     6.139E-05 1.153E-03 4.808E-04
 ETOT 29  -1651.8970672627     3.642E-05 1.042E-04 2.439E-04
 ETOT 30  -1651.8970313875     3.588E-05 2.412E-04 9.842E-05
 ETOT 31  -1651.8970037259     2.766E-05 6.423E-05 2.876E-05
 ETOT 32  -1651.8969925526     1.117E-05 3.347E-04 7.492E-06
 ETOT 33  -1651.8969888954     3.657E-06 1.049E-04 1.892E-06
 ETOT 34  -1651.8969881904     7.050E-07 4.393E-04 6.116E-07
 ETOT 35  -1651.8969880140     1.764E-07 1.231E-04 2.389E-07

 At SCF step   35, etot is converged : 
  for the second time, diff in etot=  1.764E-07 < toldfe=  1.000E-06

 Cartesian components of stress tensor (hartree/bohr^3)
  sigma(1 1)=  1.53502326E-02  sigma(3 2)=  0.00000000E+00
  sigma(2 2)=  1.53502326E-02  sigma(3 1)=  0.00000000E+00
  sigma(3 3)=  1.51931911E-02  sigma(2 1)=  0.00000000E+00


--- !ResultsGS
iteration_state: {dtset: 1, }
comment   : Summary of ground state results
lattice_vectors:
- [  7.7624317,   0.0000000,   0.0000000, ]
- [  0.0000000,   7.7624317,   0.0000000, ]
- [  0.0000000,   0.0000000,  49.7492521, ]
lattice_lengths: [   7.76243,    7.76243,   49.74925, ]
lattice_angles: [ 90.000,  90.000,  90.000, ] # degrees, (23, 13, 12)
lattice_volume:   2.9976584E+03
convergence: {deltae:  1.764E-07, res2:  2.389E-07, residm:  1.231E-04, diffor: null, }
etotal    :  -1.65189699E+03
entropy   :   0.00000000E+00
fermie    :   1.23991504E-01
cartesian_stress_tensor: # hartree/bohr^3
- [  1.53502326E-02,   0.00000000E+00,   0.00000000E+00, ]
- [  0.00000000E+00,   1.53502326E-02,   0.00000000E+00, ]
- [  0.00000000E+00,   0.00000000E+00,   1.51931911E-02, ]
pressure_GPa:  -4.5008E+02
xred      :
- [  5.0000E-01,  -2.4345E-11,   1.7726E-01, Sn]
- [ -2.4345E-11,   5.0000E-01,   2.8170E-01, Sn]
- [  5.0000E-01,  -2.4345E-11,   3.8373E-01, Sn]
- [ -2.4345E-11,   5.0000E-01,   4.8818E-01, Sn]
- [  5.0000E-01,  -2.4345E-11,   5.9021E-01, Sn]
- [ -2.4345E-11,   5.0000E-01,   1.7846E-01, Se]
- [  5.0000E-01,  -2.4345E-11,   2.8049E-01, Se]
- [ -2.4345E-11,   5.0000E-01,   3.8641E-01, Se]
- [  5.0000E-01,  -2.4345E-11,   4.8883E-01, Se]
- [ -2.4345E-11,   5.0000E-01,   5.9367E-01, Se]
- [  5.0000E-01,  -2.4345E-11,   8.8599E-01, Se]
- [ -2.4345E-11,   5.0000E-01,   1.0000E+00, Se]
- [  5.0000E-01,   5.0000E-01,   9.4300E-01, Zn]
- [ -2.4345E-11,  -2.4345E-11,   9.4300E-01, Zn]
cartesian_forces: # hartree/bohr
- [ -0.00000000E+00,  -0.00000000E+00,  -1.69392076E-02, ]
- [ -0.00000000E+00,  -0.00000000E+00,  -1.20017251E-02, ]
- [ -0.00000000E+00,  -0.00000000E+00,   3.30873783E-03, ]
- [ -0.00000000E+00,  -0.00000000E+00,   1.79896490E-02, ]
- [ -0.00000000E+00,  -0.00000000E+00,   1.76780912E-02, ]
- [ -0.00000000E+00,  -0.00000000E+00,  -1.71711693E-02, ]
- [ -0.00000000E+00,  -0.00000000E+00,  -9.10682422E-03, ]
- [ -0.00000000E+00,  -0.00000000E+00,  -9.86525762E-03, ]
- [ -0.00000000E+00,  -0.00000000E+00,  -9.64864269E-04, ]
- [ -0.00000000E+00,  -0.00000000E+00,   5.34472482E-03, ]
- [ -0.00000000E+00,  -0.00000000E+00,   9.58084018E-03, ]
- [ -0.00000000E+00,  -0.00000000E+00,  -1.13945596E-02, ]
- [ -0.00000000E+00,  -0.00000000E+00,   1.17707823E-02, ]
- [ -0.00000000E+00,  -0.00000000E+00,   1.17707823E-02, ]
force_length_stats: {min:   9.64864269E-04, max:   1.79896490E-02, mean:   1.10633725E-02, }
...

 Integrated electronic density in atomic spheres:
 ------------------------------------------------
 Atom  Sphere_radius  Integrated_density
    1        2.00000         10.55321026
    2        2.00000         10.59382496
    3        2.00000         10.57911311
    4        2.00000         10.56981950
    5        2.00000         10.53680522
    6        2.00000         13.28339293
    7        2.00000         13.30245217
    8        2.00000         13.30839548
    9        2.00000         13.30358735
   10        2.00000         13.30310464
   11        2.00000         13.24641058
   12        2.00000         13.25747170
   13        2.00000         18.09807310
   14        2.00000         18.09807310
================================================================================

 ----iterations are completed or convergence reached----

 Mean square residual over all n,k,spin=   28.277E-08; max=  12.305E-05
 reduced coordinates (array xred) for   14 atoms
       0.499999999976     -0.000000000024      0.177255867011
      -0.000000000024      0.499999999976      0.281700599370
       0.499999999976     -0.000000000024      0.383732100425
      -0.000000000024      0.499999999976      0.488176832783
       0.499999999976     -0.000000000024      0.590208333839
      -0.000000000024      0.499999999976      0.178462468950
       0.499999999976     -0.000000000024      0.280493983718
      -0.000000000024      0.499999999976      0.386406468003
       0.499999999976     -0.000000000024      0.488827027443
      -0.000000000024      0.499999999976      0.593669992273
       0.499999999976     -0.000000000024      0.885991294460
      -0.000000000024      0.499999999976      1.000000000000
       0.499999999976      0.499999999976      0.942995647217
      -0.000000000024     -0.000000000024      0.942995647217
 rms dE/dt=  3.5470E-01; max dE/dt=  7.5688E-01; dE/dt below (all hartree)
    1       0.000000000000      0.000000000000      0.745339829026
    2       0.000000000000      0.000000000000      0.499703769494
    3       0.000000000000      0.000000000000     -0.261980310742
    4       0.000000000000      0.000000000000     -0.992344660178
    5       0.000000000000      0.000000000000     -0.976844891955
    6       0.000000000000      0.000000000000      0.756879750957
    7       0.000000000000      0.000000000000      0.355684614834
    8       0.000000000000      0.000000000000      0.393416109624
    9       0.000000000000      0.000000000000     -0.049371802771
   10       0.000000000000      0.000000000000     -0.363269140893
   11       0.000000000000      0.000000000000     -0.574012711727
   12       0.000000000000      0.000000000000      0.469497737410
   13       0.000000000000      0.000000000000     -0.682960696064
   14       0.000000000000      0.000000000000     -0.682960696064

 cartesian coordinates (angstrom) at end:
    1      2.05385096415820    -0.00000000010000     4.66646814753658
    2     -0.00000000010000     2.05385096415820     7.41609796202208
    3      2.05385096415820    -0.00000000010000    10.10219663818584
    4     -0.00000000010000     2.05385096415820    12.85182645267137
    5      2.05385096415820    -0.00000000010000    15.53792512883512
    6     -0.00000000010000     2.05385096415820     4.69823335569743
    7      2.05385096415820    -0.00000000010000     7.38433239286121
    8     -0.00000000010000     2.05385096415820    10.17260249455910
    9      2.05385096415820    -0.00000000010000    12.86894358804126
   10     -0.00000000010000     2.05385096415820    15.62905733839281
   11      2.05385096415820    -0.00000000010000    23.32475773185172
   12     -0.00000000010000     2.05385096415820    26.32617033339269
   13      2.05385096415820     2.05385096415820    24.82546403227088
   14     -0.00000000010000    -0.00000000010000    24.82546403227088

 cartesian forces (hartree/bohr) at end:
    1     -0.00000000000000    -0.00000000000000    -0.01693920757944
    2     -0.00000000000000    -0.00000000000000    -0.01200172511746
    3     -0.00000000000000    -0.00000000000000     0.00330873782880
    4     -0.00000000000000    -0.00000000000000     0.01798964898275
    5     -0.00000000000000    -0.00000000000000     0.01767809116868
    6     -0.00000000000000    -0.00000000000000    -0.01717116929654
    7     -0.00000000000000    -0.00000000000000    -0.00910682421539
    8     -0.00000000000000    -0.00000000000000    -0.00986525762351
    9     -0.00000000000000    -0.00000000000000    -0.00096486426926
   10     -0.00000000000000    -0.00000000000000     0.00534472482280
   11     -0.00000000000000    -0.00000000000000     0.00958084018369
   12     -0.00000000000000    -0.00000000000000    -0.01139455956554
   13     -0.00000000000000    -0.00000000000000     0.01177078234021
   14     -0.00000000000000    -0.00000000000000     0.01177078234021
 frms,max,avg= 7.0396886E-03 1.7989649E-02   0.000E+00  0.000E+00  1.957E-03 h/b

 cartesian forces (eV/Angstrom) at end:
    1     -0.00000000000000    -0.00000000000000    -0.87104900257618
    2     -0.00000000000000    -0.00000000000000    -0.61715346740585
    3     -0.00000000000000    -0.00000000000000     0.17014212571922
    4     -0.00000000000000    -0.00000000000000     0.92506486679715
    5     -0.00000000000000    -0.00000000000000     0.90904392119356
    6     -0.00000000000000    -0.00000000000000    -0.88297695265084
    7     -0.00000000000000    -0.00000000000000    -0.46829169028441
    8     -0.00000000000000    -0.00000000000000    -0.50729190092368
    9     -0.00000000000000    -0.00000000000000    -0.04961531142559
   10     -0.00000000000000    -0.00000000000000     0.27483677758285
   11     -0.00000000000000    -0.00000000000000     0.49266656936013
   12     -0.00000000000000    -0.00000000000000    -0.58593176202696
   13     -0.00000000000000    -0.00000000000000     0.60527791332031
   14     -0.00000000000000    -0.00000000000000     0.60527791332031
 frms,max,avg= 3.6199531E-01 9.2506487E-01   0.000E+00  0.000E+00  1.006E-01 e/A
 length scales=  7.762431680422  7.762431680422 49.749252057811 bohr
              =  4.107701928516  4.107701928516 26.326170333393 angstroms
 prteigrs : about to open file Cs2TiI6o_EIG
 Fermi (or HOMO) energy (hartree) =   0.12399   Average Vxc (hartree)=  -0.30702
 Eigenvalues (hartree) for nkpt=   6  k points:
 kpt#   1, nband=113, wtk=  0.11111, kpt=  0.0833  0.0833  0.5000 (reduced coord)
  -4.74548   -4.74548   -2.98302   -2.98257   -2.98037   -2.98037   -2.98021   -2.98010
  -1.69554   -1.69468   -1.69412   -1.69410   -1.69290   -1.69289   -1.69257   -1.69228
  -1.69178   -1.69097   -1.69074   -1.69019   -1.68974   -1.68900   -1.68855   -1.68822
  -1.68819   -1.68694   -1.68672   -1.68636   -1.68606   -1.68586   -1.68427   -1.68233
  -1.68168   -1.66807   -1.66801   -1.66489   -1.66443   -1.66368   -1.65904   -1.65902
  -1.65618   -1.65539   -1.65481   -0.69029   -0.68909   -0.68895   -0.68833   -0.68808
  -0.68194   -0.68049   -0.68027   -0.68022   -0.67994   -0.67984   -0.67983   -0.67971
  -0.67837   -0.67816   -0.67648   -0.67608   -0.67596   -0.67464   -0.67438   -0.67302
  -0.67116   -0.67095   -0.67094   -0.67079   -0.43749   -0.42109   -0.41533   -0.39832
  -0.39012   -0.37451   -0.36515   -0.20826   -0.20587   -0.20579   -0.20541   -0.20391
  -0.19372   -0.19203   -0.19085   -0.18757   -0.18576   -0.15877   -0.15265   -0.12609
  -0.11441   -0.08978   -0.08058   -0.07567   -0.05404   -0.03461   -0.03172   -0.02640
  -0.02138   -0.01072   -0.00744   -0.00703    0.01318    0.01548    0.02199    0.02379
   0.03811    0.04602    0.04728    0.04735    0.05446    0.07056    0.09489    0.14369
   0.15792
 prteigrs : prtvol=0 or 1, do not print more k-points.


--- !EnergyTerms
iteration_state     : {dtset: 1, }
comment             : Components of total free energy in Hartree
kinetic             :  9.38272150573569E+02
hartree             :  1.26085416806001E+03
xc                  : -3.21407075154799E+02
Ewald energy        : -1.13452092442996E+02
psp_core            :  3.13514278871844E+01
local_psp           : -2.89607025364587E+03
non_local_psp       : -5.51290490121763E+02
VdWaals_dft_d       : -1.55060084755352E-01
total_energy        : -1.65189722492943E+03
...


--- !EnergyTermsDC
iteration_state     : {dtset: 1, }
comment             : '"Double-counting" decomposition of free energy'
band_energy         : -2.17237690384925E+02
Ewald energy        : -1.13452092442996E+02
psp_core            :  3.13514278871844E+01
xc_dc               : -1.35240357298851E+03
VdWaals_dft_d       : -1.55060084755352E-01
total_energy_dc     : -1.65189698801400E+03
...


 Cartesian components of stress tensor (hartree/bohr^3)
  sigma(1 1)=  1.53502326E-02  sigma(3 2)=  0.00000000E+00
  sigma(2 2)=  1.53502326E-02  sigma(3 1)=  0.00000000E+00
  sigma(3 3)=  1.51931911E-02  sigma(2 1)=  0.00000000E+00

-Cartesian components of stress tensor (GPa)         [Pressure= -4.5008E+02 GPa]
- sigma(1 1)=  4.51619358E+02  sigma(3 2)=  0.00000000E+00
- sigma(2 2)=  4.51619358E+02  sigma(3 1)=  0.00000000E+00
- sigma(3 3)=  4.46999040E+02  sigma(2 1)=  0.00000000E+00

== END DATASET(S) ==============================================================
================================================================================
  
 -outvars: echo values of variables after computation  --------
            acell      7.7624316804E+00  7.7624316804E+00  4.9749252058E+01 Bohr
              amu      1.18710000E+02  7.89600000E+01  6.53900000E+01
           diemac      1.20000000E+01
             ecut      2.25000000E+01 Hartree
           etotal     -1.6518969880E+03
            fcart     -0.0000000000E+00 -0.0000000000E+00 -1.6939207579E-02
                      -0.0000000000E+00 -0.0000000000E+00 -1.2001725117E-02
                      -0.0000000000E+00 -0.0000000000E+00  3.3087378288E-03
                      -0.0000000000E+00 -0.0000000000E+00  1.7989648983E-02
                      -0.0000000000E+00 -0.0000000000E+00  1.7678091169E-02
                      -0.0000000000E+00 -0.0000000000E+00 -1.7171169297E-02
                      -0.0000000000E+00 -0.0000000000E+00 -9.1068242154E-03
                      -0.0000000000E+00 -0.0000000000E+00 -9.8652576235E-03
                      -0.0000000000E+00 -0.0000000000E+00 -9.6486426926E-04
                      -0.0000000000E+00 -0.0000000000E+00  5.3447248228E-03
                      -0.0000000000E+00 -0.0000000000E+00  9.5808401837E-03
                      -0.0000000000E+00 -0.0000000000E+00 -1.1394559566E-02
                      -0.0000000000E+00 -0.0000000000E+00  1.1770782340E-02
                      -0.0000000000E+00 -0.0000000000E+00  1.1770782340E-02
-          fftalg         112
             iscf          17
              ixc          11
              kpt      8.33333333E-02  8.33333333E-02  5.00000000E-01
                       2.50000000E-01  8.33333333E-02  5.00000000E-01
                       4.16666667E-01  8.33333333E-02  5.00000000E-01
                       2.50000000E-01  2.50000000E-01  5.00000000E-01
                       4.16666667E-01  2.50000000E-01  5.00000000E-01
                       4.16666667E-01  4.16666667E-01  5.00000000E-01
         kptrlatt        6    0    0      0    6    0      0    0    1
          kptrlen      4.65745901E+01
P           mkmem           2
            natom          14
            nband         113
            ngfft          36      36     216
             nkpt           6
            nstep         150
             nsym           8
           ntypat           3
              occ      2.000000  2.000000  2.000000  2.000000  2.000000  2.000000
                       2.000000  2.000000  2.000000  2.000000  2.000000  2.000000
                       2.000000  2.000000  2.000000  2.000000  2.000000  2.000000
                       2.000000  2.000000  2.000000  2.000000  2.000000  2.000000
                       2.000000  2.000000  2.000000  2.000000  2.000000  2.000000
                       2.000000  2.000000  2.000000  2.000000  2.000000  2.000000
                       2.000000  2.000000  2.000000  2.000000  2.000000  2.000000
                       2.000000  2.000000  2.000000  2.000000  2.000000  2.000000
                       2.000000  2.000000  2.000000  2.000000  2.000000  2.000000
                       2.000000  2.000000  2.000000  2.000000  2.000000  2.000000
                       2.000000  2.000000  2.000000  2.000000  2.000000  2.000000
                       2.000000  2.000000  2.000000  2.000000  2.000000  2.000000
                       2.000000  2.000000  2.000000  2.000000  2.000000  2.000000
                       2.000000  2.000000  2.000000  2.000000  2.000000  2.000000
                       2.000000  2.000000  2.000000  2.000000  2.000000  2.000000
                       2.000000  2.000000  2.000000  2.000000  2.000000  2.000000
                       2.000000  2.000000  2.000000  2.000000  2.000000  2.000000
                       2.000000  2.000000  2.000000  2.000000  2.000000  2.000000
                       2.000000  2.000000  2.000000  0.000000  0.000000
           prtcif           1
            prtwf           0
           shiftk      5.00000000E-01  5.00000000E-01  5.00000000E-01
          spgroup          99
           strten      1.5350232558E-02  1.5350232558E-02  1.5193191102E-02
                       0.0000000000E+00  0.0000000000E+00  0.0000000000E+00
           symrel      1  0  0   0  1  0   0  0  1       1  0  0   0 -1  0   0  0  1
                      -1  0  0   0 -1  0   0  0  1      -1  0  0   0  1  0   0  0  1
                       0  1  0   1  0  0   0  0  1       0  1  0  -1  0  0   0  0  1
                       0 -1  0  -1  0  0   0  0  1       0 -1  0   1  0  0   0  0  1
            tnons      0.0000000  0.0000000  0.0000000     0.0000000 -0.0000000  0.0000000
                      -0.0000000 -0.0000000  0.0000000    -0.0000000  0.0000000  0.0000000
                       0.5000000  0.5000000  0.0000000     0.5000000  0.5000000  0.0000000
                       0.5000000  0.5000000  0.0000000     0.5000000  0.5000000  0.0000000
           toldfe      1.00000000E-06 Hartree
            typat      1  1  1  1  1  2  2  2  2  2  2  2  3  3
           vdw_xc           5
              wtk        0.11111    0.22222    0.22222    0.11111    0.22222    0.11111
           xangst      2.0538509642E+00 -1.0000005802E-10  4.6664681475E+00
                      -1.0000005802E-10  2.0538509642E+00  7.4160979620E+00
                       2.0538509642E+00 -1.0000005802E-10  1.0102196638E+01
                      -1.0000005802E-10  2.0538509642E+00  1.2851826453E+01
                       2.0538509642E+00 -1.0000005802E-10  1.5537925129E+01
                      -1.0000005802E-10  2.0538509642E+00  4.6982333557E+00
                       2.0538509642E+00 -1.0000005802E-10  7.3843323929E+00
                      -1.0000005802E-10  2.0538509642E+00  1.0172602495E+01
                       2.0538509642E+00 -1.0000005802E-10  1.2868943588E+01
                      -1.0000005802E-10  2.0538509642E+00  1.5629057338E+01
                       2.0538509642E+00 -1.0000005802E-10  2.3324757732E+01
                      -1.0000005802E-10  2.0538509642E+00  2.6326170333E+01
                       2.0538509642E+00  2.0538509642E+00  2.4825464032E+01
                      -1.0000005802E-10 -1.0000005802E-10  2.4825464032E+01
            xcart      3.8812158400E+00 -1.8897272293E-10  8.8183468067E+00
                      -1.8897272293E-10  3.8812158400E+00  1.4014394123E+01
                       3.8812158400E+00 -1.8897272293E-10  1.9090384987E+01
                      -1.8897272293E-10  3.8812158400E+00  2.4286432303E+01
                       3.8812158400E+00 -1.8897272293E-10  2.9362423167E+01
                      -1.8897272293E-10  3.8812158400E+00  8.8783743507E+00
                       3.8812158400E+00 -1.8897272293E-10  1.3954365897E+01
                      -1.8897272293E-10  3.8812158400E+00  1.9223432773E+01
                       3.8812158400E+00 -1.8897272293E-10  2.4318779001E+01
                      -1.8897272293E-10  3.8812158400E+00  2.9534638085E+01
                       3.8812158400E+00 -1.8897272293E-10  4.4077404229E+01
                      -1.8897272293E-10  3.8812158400E+00  4.9749252058E+01
                       3.8812158400E+00  3.8812158400E+00  4.6913328143E+01
                      -1.8897272293E-10 -1.8897272293E-10  4.6913328143E+01
             xred      4.9999999998E-01 -2.4344526395E-11  1.7725586701E-01
                      -2.4344526395E-11  4.9999999998E-01  2.8170059937E-01
                       4.9999999998E-01 -2.4344526395E-11  3.8373210043E-01
                      -2.4344526395E-11  4.9999999998E-01  4.8817683278E-01
                       4.9999999998E-01 -2.4344526395E-11  5.9020833384E-01
                      -2.4344526395E-11  4.9999999998E-01  1.7846246895E-01
                       4.9999999998E-01 -2.4344526395E-11  2.8049398372E-01
                      -2.4344526395E-11  4.9999999998E-01  3.8640646800E-01
                       4.9999999998E-01 -2.4344526395E-11  4.8882702744E-01
                      -2.4344526395E-11  4.9999999998E-01  5.9366999227E-01
                       4.9999999998E-01 -2.4344526395E-11  8.8599129446E-01
                      -2.4344526395E-11  4.9999999998E-01  1.0000000000E+00
                       4.9999999998E-01  4.9999999998E-01  9.4299564722E-01
                      -2.4344526395E-11 -2.4344526395E-11  9.4299564722E-01
            znucl       50.00000   34.00000   30.00000

================================================================================


- Timing analysis has been suppressed with timopt=0



================================================================================

 Suggested references for the acknowledgment of ABINIT usage.

 The users of ABINIT have little formal obligations with respect to the ABINIT group
 (those specified in the GNU General Public License, http://www.gnu.org/copyleft/gpl.txt).
 However, it is common practice in the scientific literature,
 to acknowledge the efforts of people that have made the research possible.
 In this spirit, please find below suggested citations of work written by ABINIT developers,
 corresponding to implementations inside of ABINIT that you have used in the present run.
 Note also that it will be of great value to readers of publications presenting these results,
 to read papers enabling them to understand the theoretical formalism and details
 of the ABINIT implementation.
 For information on why they are suggested, see also https://docs.abinit.org/theory/acknowledgments.
-
- [1] The Abinit project: Impact, environment and recent developments.
- Computer Phys. Comm. 248, 107042 (2020).
- X.Gonze, B. Amadon, G. Antonius, F.Arnardi, L.Baguet, J.-M.Beuken,
- J.Bieder, F.Bottin, J.Bouchet, E.Bousquet, N.Brouwer, F.Bruneval,
- G.Brunin, T.Cavignac, J.-B. Charraud, Wei Chen, M.Cote, S.Cottenier,
- J.Denier, G.Geneste, Ph.Ghosez, M.Giantomassi, Y.Gillet, O.Gingras,
- D.R.Hamann, G.Hautier, Xu He, N.Helbig, N.Holzwarth, Y.Jia, F.Jollet,
- W.Lafargue-Dit-Hauret, K.Lejaeghere, M.A.L.Marques, A.Martin, C.Martins,
- H.P.C. Miranda, F.Naccarato, K. Persson, G.Petretto, V.Planes, Y.Pouillon,
- S.Prokhorenko, F.Ricci, G.-M.Rignanese, A.H.Romero, M.M.Schmitt, M.Torrent,
- M.J.van Setten, B.Van Troeye, M.J.Verstraete, G.Zerah and J.W.Zwanzig
- Comment: the fifth generic paper describing the ABINIT project.
- Note that a version of this paper, that is not formatted for Computer Phys. Comm. 
- is available at https://www.abinit.org/sites/default/files/ABINIT20.pdf .
- The licence allows the authors to put it on the Web.
- DOI and bibtex: see https://docs.abinit.org/theory/bibliography/#gonze2020
-
- [2] Optimized norm-conserving Vanderbilt pseudopotentials.
- D.R. Hamann, Phys. Rev. B 88, 085117 (2013).
- Comment: Some pseudopotential generated using the ONCVPSP code were used.
- DOI and bibtex: see https://docs.abinit.org/theory/bibliography/#hamann2013
-
- [3] ABINIT: Overview, and focus on selected capabilities
- J. Chem. Phys. 152, 124102 (2020).
- A. Romero, D.C. Allan, B. Amadon, G. Antonius, T. Applencourt, L.Baguet,
- J.Bieder, F.Bottin, J.Bouchet, E.Bousquet, F.Bruneval,
- G.Brunin, D.Caliste, M.Cote,
- J.Denier, C. Dreyer, Ph.Ghosez, M.Giantomassi, Y.Gillet, O.Gingras,
- D.R.Hamann, G.Hautier, F.Jollet, G. Jomard,
- A.Martin, 
- H.P.C. Miranda, F.Naccarato, G.Petretto, N.A. Pike, V.Planes,
- S.Prokhorenko, T. Rangel, F.Ricci, G.-M.Rignanese, M.Royo, M.Stengel, M.Torrent,
- M.J.van Setten, B.Van Troeye, M.J.Verstraete, J.Wiktor, J.W.Zwanziger, and X.Gonze.
- Comment: a global overview of ABINIT, with focus on selected capabilities .
- Note that a version of this paper, that is not formatted for J. Chem. Phys 
- is available at https://www.abinit.org/sites/default/files/ABINIT20_JPC.pdf .
- The licence allows the authors to put it on the Web.
- DOI and bibtex: see https://docs.abinit.org/theory/bibliography/#romero2020
-
- [4] Recent developments in the ABINIT software package.
- Computer Phys. Comm. 205, 106 (2016).
- X.Gonze, F.Jollet, F.Abreu Araujo, D.Adams, B.Amadon, T.Applencourt,
- C.Audouze, J.-M.Beuken, J.Bieder, A.Bokhanchuk, E.Bousquet, F.Bruneval
- D.Caliste, M.Cote, F.Dahm, F.Da Pieve, M.Delaveau, M.Di Gennaro,
- B.Dorado, C.Espejo, G.Geneste, L.Genovese, A.Gerossier, M.Giantomassi,
- Y.Gillet, D.R.Hamann, L.He, G.Jomard, J.Laflamme Janssen, S.Le Roux,
- A.Levitt, A.Lherbier, F.Liu, I.Lukacevic, A.Martin, C.Martins,
- M.J.T.Oliveira, S.Ponce, Y.Pouillon, T.Rangel, G.-M.Rignanese,
- A.H.Romero, B.Rousseau, O.Rubel, A.A.Shukri, M.Stankovski, M.Torrent,
- M.J.Van Setten, B.Van Troeye, M.J.Verstraete, D.Waroquier, J.Wiktor,
- B.Xu, A.Zhou, J.W.Zwanziger.
- Comment: the fourth generic paper describing the ABINIT project.
- Note that a version of this paper, that is not formatted for Computer Phys. Comm. 
- is available at https://www.abinit.org/sites/default/files/ABINIT16.pdf .
- The licence allows the authors to put it on the Web.
- DOI and bibtex: see https://docs.abinit.org/theory/bibliography/#gonze2016
-
- And optionally:
-
- [5] ABINIT: First-principles approach of materials and nanosystem properties.
- Computer Phys. Comm. 180, 2582-2615 (2009).
- X. Gonze, B. Amadon, P.-M. Anglade, J.-M. Beuken, F. Bottin, P. Boulanger, F. Bruneval,
- D. Caliste, R. Caracas, M. Cote, T. Deutsch, L. Genovese, Ph. Ghosez, M. Giantomassi
- S. Goedecker, D.R. Hamann, P. Hermet, F. Jollet, G. Jomard, S. Leroux, M. Mancini, S. Mazevet,
- M.J.T. Oliveira, G. Onida, Y. Pouillon, T. Rangel, G.-M. Rignanese, D. Sangalli, R. Shaltaf,
- M. Torrent, M.J. Verstraete, G. Zerah, J.W. Zwanziger
- Comment: the third generic paper describing the ABINIT project.
- Note that a version of this paper, that is not formatted for Computer Phys. Comm. 
- is available at https://www.abinit.org/sites/default/files/ABINIT_CPC_v10.pdf .
- The licence allows the authors to put it on the Web.
- DOI and bibtex: see https://docs.abinit.org/theory/bibliography/#gonze2009
-
- Proc.   0 individual time (sec): cpu=        964.6  wall=        965.8

================================================================================

 Calculation completed.
.Delivered   0 WARNINGs and   0 COMMENTs to log file.
+Overall time at end (sec) : cpu=       3859.0  wall=       3863.0
