
.Version 9.2.2 of ABINIT 
.(MPI version, prepared for a x86_64_linux_gnu9.3 computer) 

.Copyright (C) 1998-2020 ABINIT group . 
 ABINIT comes with ABSOLUTELY NO WARRANTY.
 It is free software, and you are welcome to redistribute it
 under certain conditions (GNU General Public License,
 see ~abinit/COPYING or http://www.gnu.org/copyleft/gpl.txt).

 ABINIT is a project of the Universite Catholique de Louvain,
 Corning Inc. and other collaborators, see ~abinit/doc/developers/contributors.txt .
 Please read https://docs.abinit.org/theory/acknowledgments for suggested
 acknowledgments of the ABINIT effort.
 For more information, see https://www.abinit.org .

.Starting date : Sun 17 Mar 2024.
- ( at 09h55 )
  
- The starting date is more than 3 years after the initial release
- of this version of ABINIT, namely Nov 2020.
- This version of ABINIT is not supported anymore.
- Action: please, switch to a more recent version of ABINIT.
- input  file    -> Cs2TiI6.in
- output file    -> Cs2TiI6.out
- root for input  files -> Cs2TiI6i
- root for output files -> Cs2TiI6o


 DATASET    1 : space group P4 m m (# 99); Bravais tP (primitive tetrag.)
================================================================================
 Values of the parameters that define the memory need for DATASET  1.
     intxc =       0    ionmov =       0      iscf =      17    lmnmax =       6
     lnmax =       6     mgfft =     270  mpssoang =       3    mqgrid =   12867
     natom =      18  nloc_mem =       1    nspden =       1   nspinor =       1
    nsppol =       1      nsym =       8    n1xccc =    2501    ntypat =       3
    occopt =       1   xclevel =       2
-    mband =         152        mffmem =           1         mkmem =           2
       mpw =       18548          nfft =      349920          nkpt =          10
================================================================================
P This job should need less than                     212.376 Mbytes of memory.
  Rough estimation (10% accuracy) of disk space for files :
_ WF disk file :    430.192 Mbytes ; DEN or POT disk file :      2.672 Mbytes.
================================================================================


 DATASET    2 : space group P4 m m (# 99); Bravais tP (primitive tetrag.)
================================================================================
 Values of the parameters that define the memory need for DATASET  2.
     intxc =       0    ionmov =       0      iscf =      -2    lmnmax =       6
     lnmax =       6     mgfft =     270  mpssoang =       3    mqgrid =   12867
     natom =      18  nloc_mem =       1    nspden =       1   nspinor =       1
    nsppol =       1      nsym =       8    n1xccc =    2501    ntypat =       3
    occopt =       1   xclevel =       2
-    mband =         152        mffmem =           1         mkmem =          10
       mpw =       18620          nfft =      349920          nkpt =          57
================================================================================
P This job should need less than                     508.547 Mbytes of memory.
  Rough estimation (10% accuracy) of disk space for files :
_ WF disk file :   2461.606 Mbytes ; DEN or POT disk file :      2.672 Mbytes.
================================================================================


 DATASET    3 : space group P4 m m (# 99); Bravais tP (primitive tetrag.)
================================================================================
 Values of the parameters that define the memory need for DATASET  3.
     intxc =       0    ionmov =       0      iscf =      -3    lmnmax =       6
     lnmax =       6     mgfft =     270  mpssoang =       3    mqgrid =   12867
     natom =      18  nloc_mem =       1    nspden =       1   nspinor =       1
    nsppol =       1      nsym =       8    n1xccc =    2501    ntypat =       3
    occopt =       1   xclevel =       2
-    mband =         152        mffmem =           1         mkmem =           2
       mpw =       18548          nfft =      349920          nkpt =          10
================================================================================
P This job should need less than                     158.982 Mbytes of memory.
  Rough estimation (10% accuracy) of disk space for files :
_ WF disk file :    430.192 Mbytes ; DEN or POT disk file :      2.672 Mbytes.
================================================================================

--------------------------------------------------------------------------------
------------- Echo of variables that govern the present computation ------------
--------------------------------------------------------------------------------
-
- outvars: echo of selected default values                                      
-   iomode0 =  0 , fftalg0 =112 , wfoptalg0 =  0
-
- outvars: echo of global parameters not present in the input file              
-  max_nthreads =    0
-
 -outvars: echo values of preprocessed input variables --------
            acell      7.7624316804E+00  7.7624316804E+00  7.7624316804E+00 Bohr
              amu      1.18710000E+02  7.89600000E+01  6.53900000E+01
           diemac      1.20000000E+01
        dosdeltae1     0.00000000E+00 Hartree
        dosdeltae2     0.00000000E+00 Hartree
        dosdeltae3     1.00000000E-03 Hartree
             ecut      2.25000000E+01 Hartree
-          fftalg         112
           getden1          0
           getden2          1
           getden3          1
           getwfk1          0
           getwfk2          0
           getwfk3          1
           iatsph3       1    8   16   17
             iscf1         17
             iscf2         -2
             iscf3         -3
           istwfk2       7    0    0    0    0    0    0    0    0    0
                         4    0    0    0    0    0    0    0    0    0
                         0    0    2    0    0    0    0    0    0    0
                         0    0    0    0    0    0    0    0    0    0
                         9    0    0    0    0    0    0    0    8    0
              ixc     -101130
           jdtset        1    2    3
              kpt1     6.25000000E-02  6.25000000E-02  5.00000000E-01
                       1.87500000E-01  6.25000000E-02  5.00000000E-01
                       3.12500000E-01  6.25000000E-02  5.00000000E-01
                       4.37500000E-01  6.25000000E-02  5.00000000E-01
                       1.87500000E-01  1.87500000E-01  5.00000000E-01
                       3.12500000E-01  1.87500000E-01  5.00000000E-01
                       4.37500000E-01  1.87500000E-01  5.00000000E-01
                       3.12500000E-01  3.12500000E-01  5.00000000E-01
                       4.37500000E-01  3.12500000E-01  5.00000000E-01
                       4.37500000E-01  4.37500000E-01  5.00000000E-01
              kpt2     5.00000000E-01  5.00000000E-01  0.00000000E+00
                       4.50000000E-01  4.50000000E-01  5.00000000E-02
                       4.00000000E-01  4.00000000E-01  1.00000000E-01
                       3.50000000E-01  3.50000000E-01  1.50000000E-01
                       3.00000000E-01  3.00000000E-01  2.00000000E-01
                       2.50000000E-01  2.50000000E-01  2.50000000E-01
                       2.00000000E-01  2.00000000E-01  3.00000000E-01
                       1.50000000E-01  1.50000000E-01  3.50000000E-01
                       1.00000000E-01  1.00000000E-01  4.00000000E-01
                       5.00000000E-02  5.00000000E-02  4.50000000E-01
                       0.00000000E+00  0.00000000E+00  5.00000000E-01
                       0.00000000E+00  0.00000000E+00  4.58333333E-01
                       0.00000000E+00  0.00000000E+00  4.16666667E-01
                       0.00000000E+00  0.00000000E+00  3.75000000E-01
                       0.00000000E+00  0.00000000E+00  3.33333333E-01
                       0.00000000E+00  0.00000000E+00  2.91666667E-01
                       0.00000000E+00  0.00000000E+00  2.50000000E-01
                       0.00000000E+00  0.00000000E+00  2.08333333E-01
                       0.00000000E+00  0.00000000E+00  1.66666667E-01
                       0.00000000E+00  0.00000000E+00  1.25000000E-01
                       0.00000000E+00  0.00000000E+00  8.33333333E-02
                       0.00000000E+00  0.00000000E+00  4.16666667E-02
                       0.00000000E+00  0.00000000E+00  0.00000000E+00
                       2.77777778E-02  2.77777778E-02  2.77777778E-02
                       5.55555556E-02  5.55555556E-02  5.55555556E-02
                       8.33333333E-02  8.33333333E-02  8.33333333E-02
                       1.11111111E-01  1.11111111E-01  1.11111111E-01
                       1.38888889E-01  1.38888889E-01  1.38888889E-01
                       1.66666667E-01  1.66666667E-01  1.66666667E-01
                       1.94444444E-01  1.94444444E-01  1.94444444E-01
                       2.22222222E-01  2.22222222E-01  2.22222222E-01
                       2.50000000E-01  2.50000000E-01  2.50000000E-01
                       2.77777778E-01  2.77777778E-01  2.77777778E-01
                       3.05555556E-01  3.05555556E-01  3.05555556E-01
                       3.33333333E-01  3.33333333E-01  3.33333333E-01
                       3.61111111E-01  3.61111111E-01  3.61111111E-01
                       3.88888889E-01  3.88888889E-01  3.88888889E-01
                       4.16666667E-01  4.16666667E-01  4.16666667E-01
                       4.44444444E-01  4.44444444E-01  4.44444444E-01
                       4.72222222E-01  4.72222222E-01  4.72222222E-01
                       5.00000000E-01  5.00000000E-01  5.00000000E-01
                       4.37500000E-01  5.00000000E-01  5.00000000E-01
                       3.75000000E-01  5.00000000E-01  5.00000000E-01
                       3.12500000E-01  5.00000000E-01  5.00000000E-01
                       2.50000000E-01  5.00000000E-01  5.00000000E-01
                       1.87500000E-01  5.00000000E-01  5.00000000E-01
                       1.25000000E-01  5.00000000E-01  5.00000000E-01
                       6.25000000E-02  5.00000000E-01  5.00000000E-01
                       0.00000000E+00  5.00000000E-01  5.00000000E-01
                       0.00000000E+00  5.00000000E-01  4.37500000E-01
              kpt3     6.25000000E-02  6.25000000E-02  5.00000000E-01
                       1.87500000E-01  6.25000000E-02  5.00000000E-01
                       3.12500000E-01  6.25000000E-02  5.00000000E-01
                       4.37500000E-01  6.25000000E-02  5.00000000E-01
                       1.87500000E-01  1.87500000E-01  5.00000000E-01
                       3.12500000E-01  1.87500000E-01  5.00000000E-01
                       4.37500000E-01  1.87500000E-01  5.00000000E-01
                       3.12500000E-01  3.12500000E-01  5.00000000E-01
                       4.37500000E-01  3.12500000E-01  5.00000000E-01
                       4.37500000E-01  4.37500000E-01  5.00000000E-01
                       outvar_i_n : Printing only first  50 k-points.
           kptopt1          1
           kptopt2         -5
           kptopt3          1
         kptrlatt        8    0    0      0    8    0      0    0    1
          kptrlen1     6.20994534E+01
          kptrlen2     3.00000000E+01
          kptrlen3     6.20994534E+01
P           mkmem1          2
P           mkmem2         10
P           mkmem3          2
            natom          18
           natsph3       4
            nband1        152
            nband2        152
            nband3        152
           nbdbuf1          0
           nbdbuf2          2
           nbdbuf3          2
           ndtset           3
            ngfft          36      36     270
             nkpt1         10
             nkpt2         57
             nkpt3         10
            nstep1       1000
            nstep2        300
            nstep3        300
             nsym           8
           ntypat           3
              occ      2.000000  2.000000  2.000000  2.000000  2.000000  2.000000
                       2.000000  2.000000  2.000000  2.000000  2.000000  2.000000
                       2.000000  2.000000  2.000000  2.000000  2.000000  2.000000
                       2.000000  2.000000  2.000000  2.000000  2.000000  2.000000
                       2.000000  2.000000  2.000000  2.000000  2.000000  2.000000
                       2.000000  2.000000  2.000000  2.000000  2.000000  2.000000
                       2.000000  2.000000  2.000000  2.000000  2.000000  2.000000
                       2.000000  2.000000  2.000000  2.000000  2.000000  2.000000
                       2.000000  2.000000  2.000000  2.000000  2.000000  2.000000
                       2.000000  2.000000  2.000000  2.000000  2.000000  2.000000
                       2.000000  2.000000  2.000000  2.000000  2.000000  2.000000
                       2.000000  2.000000  2.000000  2.000000  2.000000  2.000000
                       2.000000  2.000000  2.000000  2.000000  2.000000  2.000000
                       2.000000  2.000000  2.000000  2.000000  2.000000  2.000000
                       2.000000  2.000000  2.000000  2.000000  2.000000  2.000000
                       2.000000  2.000000  2.000000  2.000000  2.000000  2.000000
                       2.000000  2.000000  2.000000  2.000000  2.000000  2.000000
                       2.000000  2.000000  2.000000  2.000000  2.000000  2.000000
                       2.000000  2.000000  2.000000  2.000000  2.000000  2.000000
                       2.000000  2.000000  2.000000  2.000000  2.000000  2.000000
                       2.000000  2.000000  2.000000  2.000000  2.000000  2.000000
                       2.000000  2.000000  2.000000  2.000000  2.000000  2.000000
                       2.000000  2.000000  2.000000  2.000000  2.000000  2.000000
                       2.000000  2.000000  2.000000  0.000000  0.000000  0.000000
                       0.000000  0.000000  0.000000  0.000000  0.000000  0.000000
                       0.000000  0.000000
           prtcif           1
           prtdos1          0
           prtdos2          0
           prtdos3          3
            rprim      1.0000000000E+00  0.0000000000E+00  0.0000000000E+00
                       0.0000000000E+00  1.0000000000E+00  0.0000000000E+00
                       0.0000000000E+00  0.0000000000E+00  7.7624175269E+00
           shiftk      5.00000000E-01  5.00000000E-01  5.00000000E-01
          spgroup          99
           symrel      1  0  0   0  1  0   0  0  1       1  0  0   0 -1  0   0  0  1
                      -1  0  0   0 -1  0   0  0  1      -1  0  0   0  1  0   0  0  1
                       0  1  0   1  0  0   0  0  1       0  1  0  -1  0  0   0  0  1
                       0 -1  0  -1  0  0   0  0  1       0 -1  0   1  0  0   0  0  1
            tnons      0.0000000  0.0000000  0.0000000     0.0000000 -0.0000000  0.0000000
                      -0.0000000 -0.0000000  0.0000000    -0.0000000  0.0000000  0.0000000
                       0.5000000  0.5000000  0.0000000     0.5000000  0.5000000  0.0000000
                       0.5000000  0.5000000  0.0000000     0.5000000  0.5000000  0.0000000
           tolwfr      1.00000000E-20
            typat      1  1  1  1  1  1  1  2  2  2  2  2  2  2  2  2  3  3
           vdw_xc           5
              wtk1       0.06250    0.12500    0.12500    0.12500    0.06250    0.12500
                         0.12500    0.06250    0.12500    0.06250
              wtk2       1.00000    1.00000    1.00000    1.00000    1.00000    1.00000
                         1.00000    1.00000    1.00000    1.00000    1.00000    1.00000
                         1.00000    1.00000    1.00000    1.00000    1.00000    1.00000
                         1.00000    1.00000    1.00000    1.00000    1.00000    1.00000
                         1.00000    1.00000    1.00000    1.00000    1.00000    1.00000
                         1.00000    1.00000    1.00000    1.00000    1.00000    1.00000
                         1.00000    1.00000    1.00000    1.00000    1.00000    1.00000
                         1.00000    1.00000    1.00000    1.00000    1.00000    1.00000
                         1.00000    1.00000
              wtk3       0.06250    0.12500    0.12500    0.12500    0.06250    0.12500
                         0.12500    0.06250    0.12500    0.06250
                       outvars : Printing only first  50 k-points.
           xangst      2.0538509643E+00  0.0000000000E+00  4.6664718211E+00
                       0.0000000000E+00  2.0538509643E+00  7.4161030546E+00
                       2.0538509643E+00  0.0000000000E+00  1.0102186093E+01
                       0.0000000000E+00  2.0538509643E+00  1.2851817327E+01
                       2.0538509643E+00  0.0000000000E+00  1.5537932251E+01
                       0.0000000000E+00  2.0538509643E+00  1.8287563484E+01
                       2.0538509643E+00  0.0000000000E+00  2.0973646523E+01
                       0.0000000000E+00  2.0538509643E+00  4.6982299757E+00
                       2.0538509643E+00  0.0000000000E+00  7.3843448999E+00
                       0.0000000000E+00  2.0538509643E+00  1.0133976133E+01
                       2.0538509643E+00  0.0000000000E+00  1.2820059172E+01
                       0.0000000000E+00  2.0538509643E+00  1.5569690405E+01
                       2.0538509643E+00  0.0000000000E+00  1.8255773444E+01
                       0.0000000000E+00  2.0538509643E+00  2.1005404677E+01
                       2.0538509643E+00  0.0000000000E+00  2.4229208118E+01
                       0.0000000000E+00  2.0538509643E+00  2.7219225624E+01
                       2.0538509643E+00  2.0538509643E+00  2.5724232814E+01
                       0.0000000000E+00  0.0000000000E+00  2.5724232814E+01
            xcart      3.8812158402E+00  0.0000000000E+00  8.8183537487E+00
                       0.0000000000E+00  3.8812158402E+00  1.4014403746E+01
                       3.8812158402E+00  0.0000000000E+00  1.9090365059E+01
                       0.0000000000E+00  3.8812158402E+00  2.4286415057E+01
                       3.8812158402E+00  0.0000000000E+00  2.9362436625E+01
                       0.0000000000E+00  3.8812158402E+00  3.4558486623E+01
                       3.8812158402E+00  0.0000000000E+00  3.9634447936E+01
                       0.0000000000E+00  3.8812158402E+00  8.8783679635E+00
                       3.8812158402E+00  0.0000000000E+00  1.3954389532E+01
                       0.0000000000E+00  3.8812158402E+00  1.9150439529E+01
                       3.8812158402E+00  0.0000000000E+00  2.4226400842E+01
                       0.0000000000E+00  3.8812158402E+00  2.9422450840E+01
                       3.8812158402E+00  0.0000000000E+00  3.4498412153E+01
                       0.0000000000E+00  3.8812158402E+00  3.9694462151E+01
                       3.8812158402E+00  0.0000000000E+00  4.5786567759E+01
                       0.0000000000E+00  3.8812158402E+00  5.1436881979E+01
                       3.8812158402E+00  3.8812158402E+00  4.8611754996E+01
                       0.0000000000E+00  0.0000000000E+00  4.8611754996E+01
             xred      5.0000000000E-01  0.0000000000E+00  1.4635000000E-01
                       0.0000000000E+00  5.0000000000E-01  2.3258400000E-01
                       5.0000000000E-01  0.0000000000E+00  3.1682500000E-01
                       0.0000000000E+00  5.0000000000E-01  4.0305900000E-01
                       5.0000000000E-01  0.0000000000E+00  4.8730100000E-01
                       0.0000000000E+00  5.0000000000E-01  5.7353500000E-01
                       5.0000000000E-01  0.0000000000E+00  6.5777600000E-01
                       0.0000000000E+00  5.0000000000E-01  1.4734600000E-01
                       5.0000000000E-01  0.0000000000E+00  2.3158800000E-01
                       0.0000000000E+00  5.0000000000E-01  3.1782200000E-01
                       5.0000000000E-01  0.0000000000E+00  4.0206300000E-01
                       0.0000000000E+00  5.0000000000E-01  4.8829700000E-01
                       5.0000000000E-01  0.0000000000E+00  5.7253800000E-01
                       0.0000000000E+00  5.0000000000E-01  6.5877200000E-01
                       5.0000000000E-01  0.0000000000E+00  7.5987700000E-01
                       0.0000000000E+00  5.0000000000E-01  8.5365000000E-01
                       5.0000000000E-01  5.0000000000E-01  8.0676400000E-01
                       0.0000000000E+00  0.0000000000E+00  8.0676400000E-01
            znucl       50.00000   34.00000   30.00000

================================================================================

 chkinp: Checking input parameters for consistency, jdtset=   1.

 chkinp: Checking input parameters for consistency, jdtset=   2.

 chkinp: Checking input parameters for consistency, jdtset=   3.

================================================================================
== DATASET  1 ==================================================================
-   mpi_nproc: 6, omp_nthreads: -1 (-1 if OMP is not activated)


--- !DatasetInfo
iteration_state: {dtset: 1, }
dimensions: {natom: 18, nkpt: 10, mband: 152, nsppol: 1, nspinor: 1, nspden: 1, mpw: 18548, }
cutoff_energies: {ecut:  22.5, pawecutdg:  -1.0, }
electrons: {nelect:   2.82000000E+02, charge:   0.00000000E+00, occopt:   1.00000000E+00, tsmear:   1.00000000E-02, }
meta: {optdriver: 0, ionmov: 0, optcell: 0, iscf: 17, paral_kgb: 0, }
...

 Real(R)+Recip(G) space primitive vectors, cartesian coordinates (Bohr,Bohr^-1):
 R(1)=  7.7624317  0.0000000  0.0000000  G(1)=  0.1288256  0.0000000  0.0000000
 R(2)=  0.0000000  7.7624317  0.0000000  G(2)=  0.0000000  0.1288256  0.0000000
 R(3)=  0.0000000  0.0000000 60.2552357  G(3)=  0.0000000  0.0000000  0.0165961
 Unit cell volume ucvol=  3.6307001E+03 bohr^3
 Angles (23,13,12)=  9.00000000E+01  9.00000000E+01  9.00000000E+01 degrees

 getcut: wavevector=  0.0000  0.0000  0.0000  ngfft=  36  36 270
         ecut(hartree)=     22.500   => boxcut(ratio)=   2.09852

--- Pseudopotential description ------------------------------------------------
- pspini: atom type   1  psp file is ../../../Psps_for_tests/ATOMICDATA_NC/Sn.psp8
- pspatm: opening atomic psp file    ../../../Psps_for_tests/ATOMICDATA_NC/Sn.psp8
- Sn    ONCVPSP  r_core=  2.27  2.62  1.86
- 50.00000  14.00000    150810                znucl, zion, pspdat
    8   11    2    4       600   0.00000      pspcod,pspxc,lmax,lloc,mmax,r2well
    5.99000000000000    6.50000000000000    0.00000000000000   rchrg,fchrg,qchrg
     nproj     2     2     2
     extension_switch     1
  pspatm : epsatm=   32.65190642
         --- l  ekb(1:nproj) -->
             0    5.462393    0.682281
             1    4.443814    0.825686
             2   -5.382195   -1.704077
 pspatm: atomic psp has been read  and splines computed

- pspini: atom type   2  psp file is ../../../Psps_for_tests/ATOMICDATA_NC/Se.psp8
- pspatm: opening atomic psp file    ../../../Psps_for_tests/ATOMICDATA_NC/Se.psp8
- Se    ONCVPSP  r_core=  1.82  1.50  1.91
- 34.00000  16.00000    150729                znucl, zion, pspdat
    8   11    2    4       600   0.00000      pspcod,pspxc,lmax,lloc,mmax,r2well
    5.99000000000000    5.00000000000000    0.00000000000000   rchrg,fchrg,qchrg
     nproj     2     2     2
     extension_switch     1
  pspatm : epsatm=   29.53325930
         --- l  ekb(1:nproj) -->
             0    8.612261    0.939919
             1    6.984962    1.281898
             2   -9.322521   -3.856218
 pspatm: atomic psp has been read  and splines computed

- pspini: atom type   3  psp file is ../../../Psps_for_tests/ATOMICDATA_NC/Zn.psp8
- pspatm: opening atomic psp file    ../../../Psps_for_tests/ATOMICDATA_NC/Zn.psp8
- Zn    ONCVPSP  r_core=  1.36  1.66  1.85
- 30.00000  20.00000    161102                znucl, zion, pspdat
    8   11    2    4       600   0.00000      pspcod,pspxc,lmax,lloc,mmax,r2well
    5.99000000000000    2.50000000000000    0.00000000000000   rchrg,fchrg,qchrg
     nproj     2     2     2
     extension_switch     1
  pspatm : epsatm=   26.67245340
         --- l  ekb(1:nproj) -->
             0    2.404235   -1.533451
             1   -4.677427   -1.530630
             2   -7.000316   -2.622858
 pspatm: atomic psp has been read  and splines computed

   1.54453539E+05                                ecore*ucvol(ha*bohr**3)
--------------------------------------------------------------------------------

_setup2: Arith. and geom. avg. npw (full set) are   18506.125   18506.116

================================================================================

--- !BeginCycle
iteration_state: {dtset: 1, }
solver: {iscf: 17, nstep: 1000, nline: 4, wfoptalg: 0, }
tolerances: {tolwfr: 1.00E-20, }
...

     iter   Etot(hartree)      deltaE(h)  residm     nres2
 ETOT  1  -2028.2632349481    -2.028E+03 7.968E-01 1.915E+03
 ETOT  2  -2213.5098748073    -1.852E+02 4.223E-01 9.355E+03
 ETOT  3  -2071.7282440461     1.418E+02 2.468E+01 3.849E+03
 ETOT  4  -2264.8334208032    -1.931E+02 3.283E+00 6.707E+03
 ETOT  5  -2089.0254301885     1.758E+02 1.285E+00 3.787E+03
 ETOT  6  -2059.1965220106     2.983E+01 8.392E-01 1.412E+03
 ETOT  7  -2045.2360248133     1.396E+01 4.434E+00 1.467E+03
 ETOT  8  -2061.4156277318    -1.618E+01 8.532E-01 1.826E+03
 ETOT  9  -2062.3725112087    -9.569E-01 6.893E-01 1.260E+03
 ETOT 10  -2077.7071935282    -1.533E+01 1.898E-01 1.554E+03
 ETOT 11  -2115.0179895305    -3.731E+01 9.572E-01 1.683E+03
 ETOT 12  -2056.5125905681     5.851E+01 8.365E-01 9.921E+02
 ETOT 13  -2065.0510451137    -8.538E+00 1.118E-01 1.076E+03
 ETOT 14  -2071.9702918047    -6.919E+00 1.644E-01 1.146E+03
 ETOT 15  -2112.7181095251    -4.075E+01 5.875E+00 1.501E+03
 ETOT 16  -2044.7405285093     6.798E+01 1.264E+00 4.834E+02
 ETOT 17  -2057.2032481279    -1.246E+01 1.149E+00 3.538E+02
 ETOT 18  -2059.6788179922    -2.476E+00 7.074E-01 3.076E+02
 ETOT 19  -2075.5738380108    -1.590E+01 2.595E+00 1.408E+03
 ETOT 20  -2099.8283129634    -2.425E+01 3.221E-01 2.162E+03
 ETOT 21  -2069.8695522930     2.996E+01 1.845E-01 9.854E+02
 ETOT 22  -2047.9539836429     2.192E+01 1.000E+00 2.652E+02
 ETOT 23  -2052.8135186402    -4.860E+00 2.933E-01 2.632E+02
 ETOT 24  -2056.8245181243    -4.011E+00 6.928E-02 2.511E+02
 ETOT 25  -2055.1176614937     1.707E+00 4.558E-01 1.779E+02
 ETOT 26  -2070.1296385083    -1.501E+01 4.416E-01 3.010E+02
 ETOT 27  -2050.9917934540     1.914E+01 4.572E-01 7.571E+01
 ETOT 28  -2071.6715666724    -2.068E+01 1.181E+00 1.865E+03
 ETOT 29  -2057.8576964018     1.381E+01 1.523E-01 1.728E+03
 ETOT 30  -2048.3892191172     9.468E+00 1.510E-01 4.947E+02
 ETOT 31  -2063.9120763704    -1.552E+01 1.355E-01 1.799E+03
 ETOT 32  -2046.8414268297     1.707E+01 2.222E-01 1.608E+02
 ETOT 33  -2048.6868131577    -1.845E+00 2.133E-01 1.398E+01
 ETOT 34  -2050.6112713804    -1.924E+00 1.289E-01 5.249E+01
 ETOT 35  -2055.0903500851    -4.479E+00 9.621E-02 1.407E+02
 ETOT 36  -2050.4898587799     4.600E+00 7.937E-02 5.592E+01
 ETOT 37  -2050.1234309227     3.664E-01 9.430E-02 3.905E+01
 ETOT 38  -2050.1656633195    -4.223E-02 2.453E-02 3.872E+01
 ETOT 39  -2050.2472660077    -8.160E-02 1.751E-02 3.694E+01
 ETOT 40  -2050.8188278942    -5.716E-01 3.226E-02 4.987E+01
 ETOT 41  -2051.1124867709    -2.937E-01 5.072E-02 4.122E+01
 ETOT 42  -2050.7031966122     4.093E-01 2.055E-02 3.254E+01
 ETOT 43  -2049.8075944140     8.956E-01 3.309E-02 4.602E+00
 ETOT 44  -2049.8094051607    -1.811E-03 1.064E-02 1.867E+00
 ETOT 45  -2049.7896338548     1.977E-02 8.276E-03 7.142E-01
 ETOT 46  -2049.7827030873     6.931E-03 2.397E-03 3.273E-01
 ETOT 47  -2049.7868247333    -4.122E-03 5.117E-03 2.711E-01
 ETOT 48  -2049.7739996832     1.283E-02 4.024E-03 1.488E-01
 ETOT 49  -2049.7702910459     3.709E-03 5.961E-03 8.576E-02
 ETOT 50  -2049.7688027430     1.488E-03 1.972E-03 3.023E-02
 ETOT 51  -2049.7676999399     1.103E-03 5.245E-04 6.255E-03
 ETOT 52  -2049.7675545475     1.454E-04 5.481E-04 2.159E-03
 ETOT 53  -2049.7674141642     1.404E-04 1.504E-04 5.977E-04
 ETOT 54  -2049.7673897084     2.446E-05 1.966E-04 3.570E-04
 ETOT 55  -2049.7673939847    -4.276E-06 9.387E-05 2.644E-04
 ETOT 56  -2049.7674065938    -1.261E-05 1.366E-04 1.214E-04
 ETOT 57  -2049.7674272960    -2.070E-05 6.817E-05 5.929E-05
 ETOT 58  -2049.7674549943    -2.770E-05 1.045E-04 1.637E-05
 ETOT 59  -2049.7674663469    -1.135E-05 5.918E-05 5.351E-06
 ETOT 60  -2049.7674709038    -4.557E-06 8.680E-05 8.403E-07
 ETOT 61  -2049.7674713838    -4.801E-07 4.760E-05 1.539E-07
 ETOT 62  -2049.7674714624    -7.860E-08 6.863E-05 1.636E-08
 ETOT 63  -2049.7674714691    -6.625E-09 3.671E-05 5.661E-09
 ETOT 64  -2049.7674714701    -1.064E-09 5.204E-05 1.734E-09
 ETOT 65  -2049.7674714708    -6.439E-10 2.717E-05 6.382E-10
 ETOT 66  -2049.7674714710    -2.228E-10 3.804E-05 1.424E-10
 ETOT 67  -2049.7674714709     8.458E-11 1.949E-05 2.379E-11
 ETOT 68  -2049.7674714710    -1.246E-10 2.703E-05 7.081E-12
 ETOT 69  -2049.7674714708     2.274E-10 1.367E-05 4.821E-13
 ETOT 70  -2049.7674714712    -3.411E-10 1.883E-05 1.033E-13
 ETOT 71  -2049.7674714711     7.276E-12 9.428E-06 1.781E-14
 ETOT 72  -2049.7674714712    -1.364E-11 1.293E-05 5.071E-15
 ETOT 73  -2049.7674714711     2.274E-11 6.433E-06 1.283E-15
 ETOT 74  -2049.7674714711     1.091E-11 8.798E-06 3.566E-16
 ETOT 75  -2049.7674714711     3.638E-12 4.356E-06 1.451E-16
 ETOT 76  -2049.7674714710     9.550E-11 5.948E-06 8.790E-17
 ETOT 77  -2049.7674714711    -2.819E-11 2.936E-06 4.209E-17
 ETOT 78  -2049.7674714711    -6.276E-11 4.003E-06 2.397E-17
 ETOT 79  -2049.7674714711     4.002E-11 1.972E-06 7.923E-18
 ETOT 80  -2049.7674714711     5.457E-12 2.687E-06 2.877E-18
 ETOT 81  -2049.7674714709     2.028E-10 1.323E-06 9.194E-19
 ETOT 82  -2049.7674714712    -3.138E-10 1.801E-06 3.727E-19
 ETOT 83  -2049.7674714710     2.183E-10 8.857E-07 1.898E-19
 ETOT 84  -2049.7674714709     4.184E-11 1.205E-06 4.177E-20
 ETOT 85  -2049.7674714709    -5.457E-12 6.039E-07 2.048E-20
 ETOT 86  -2049.7674714710    -7.913E-11 8.063E-07 7.516E-21
 ETOT 87  -2049.7674714710     0.000E+00 5.490E-07 4.685E-21
 ETOT 88  -2049.7674714710    -2.365E-11 5.416E-07 1.828E-21
 ETOT 89  -2049.7674714710     3.820E-11 4.989E-07 1.050E-21
 ETOT 90  -2049.7674714710     6.366E-12 4.918E-07 3.579E-22
 ETOT 91  -2049.7674714710    -2.910E-11 4.531E-07 9.802E-23
 ETOT 92  -2049.7674714710     1.637E-11 4.464E-07 4.410E-23
 ETOT 93  -2049.7674714710    -3.183E-11 4.113E-07 8.201E-24
 ETOT 94  -2049.7674714711    -2.728E-11 4.050E-07 1.612E-24
 ETOT 95  -2049.7674714711     6.366E-12 3.732E-07 4.797E-25
 ETOT 96  -2049.7674714710     4.547E-12 3.674E-07 1.333E-25
 ETOT 97  -2049.7674714710     5.457E-12 3.384E-07 7.616E-26
 ETOT 98  -2049.7674714710     9.095E-13 3.331E-07 5.073E-26
 ETOT 99  -2049.7674714710     1.819E-12 3.068E-07 4.187E-26
 ETOT  100  -2049.7674714710     9.095E-13 3.019E-07 3.174E-26
 ETOT  101  -2049.7674714710     9.095E-13 2.781E-07 2.777E-26
 ETOT  102  -2049.7674714710    -9.095E-13 2.736E-07 3.557E-26
 ETOT  103  -2049.7674714710     0.000E+00 2.520E-07 2.567E-26
 ETOT  104  -2049.7674714710    -1.819E-12 2.478E-07 4.148E-26
 ETOT  105  -2049.7674714710     1.819E-12 2.282E-07 4.699E-26
 ETOT  106  -2049.7674714710    -9.095E-13 2.245E-07 3.714E-26
 ETOT  107  -2049.7674714710     1.819E-12 2.067E-07 3.084E-26
 ETOT  108  -2049.7674714710     0.000E+00 2.033E-07 3.074E-26
 ETOT  109  -2049.7674714710    -9.095E-13 1.871E-07 2.329E-26
 ETOT  110  -2049.7674714710     1.819E-12 1.840E-07 3.855E-26
 ETOT  111  -2049.7674714710    -3.638E-12 1.694E-07 2.126E-26
 ETOT  112  -2049.7674714710     2.728E-12 1.666E-07 2.014E-26
 ETOT  113  -2049.7674714710    -1.819E-12 1.533E-07 1.821E-26
 ETOT  114  -2049.7674714710     1.819E-12 1.507E-07 2.458E-26
 ETOT  115  -2049.7674714710    -9.095E-13 1.387E-07 2.039E-26
 ETOT  116  -2049.7674714710    -9.095E-13 1.364E-07 3.218E-26
 ETOT  117  -2049.7674714710     9.095E-13 1.255E-07 4.569E-26
 ETOT  118  -2049.7674714710     9.095E-13 1.234E-07 1.289E-26
 ETOT  119  -2049.7674714710     9.095E-13 1.136E-07 1.632E-26
 ETOT  120  -2049.7674714710    -3.638E-12 1.117E-07 6.515E-26
 ETOT  121  -2049.7674714710     9.095E-13 1.027E-07 2.073E-26
 ETOT  122  -2049.7674714710     9.095E-13 1.010E-07 2.528E-26
 ETOT  123  -2049.7674714710    -1.819E-12 9.291E-08 5.687E-26
 ETOT  124  -2049.7674714710     9.095E-13 9.138E-08 1.739E-26
 ETOT  125  -2049.7674714710    -1.819E-12 8.402E-08 1.759E-26
 ETOT  126  -2049.7674714710     9.095E-13 8.265E-08 1.494E-26
 ETOT  127  -2049.7674714710     0.000E+00 7.598E-08 2.069E-26
 ETOT  128  -2049.7674714710     0.000E+00 7.475E-08 2.060E-26
 ETOT  129  -2049.7674714710     9.095E-13 6.871E-08 1.025E-25
 ETOT  130  -2049.7674714710     0.000E+00 6.760E-08 3.465E-26
 ETOT  131  -2049.7674714710     0.000E+00 6.212E-08 1.974E-26
 ETOT  132  -2049.7674714710     0.000E+00 6.113E-08 2.371E-26
 ETOT  133  -2049.7674714710     0.000E+00 5.617E-08 1.617E-26
 ETOT  134  -2049.7674714710    -9.095E-13 5.528E-08 2.706E-26
 ETOT  135  -2049.7674714710    -9.095E-13 5.078E-08 1.748E-26
 ETOT  136  -2049.7674714710    -9.095E-13 4.998E-08 9.815E-27
 ETOT  137  -2049.7674714710     0.000E+00 4.591E-08 3.820E-26
 ETOT  138  -2049.7674714710     1.819E-12 4.520E-08 2.419E-26
 ETOT  139  -2049.7674714710    -9.095E-13 4.151E-08 1.509E-26
 ETOT  140  -2049.7674714710    -9.095E-13 4.086E-08 1.589E-26
 ETOT  141  -2049.7674714710     0.000E+00 3.752E-08 2.864E-26
 ETOT  142  -2049.7674714710     0.000E+00 3.695E-08 1.057E-26
 ETOT  143  -2049.7674714710     9.095E-13 3.392E-08 1.234E-26
 ETOT  144  -2049.7674714710    -9.095E-13 3.341E-08 3.407E-26
 ETOT  145  -2049.7674714710     0.000E+00 3.066E-08 1.376E-26
 ETOT  146  -2049.7674714710     0.000E+00 3.020E-08 1.380E-26
 ETOT  147  -2049.7674714710     0.000E+00 2.771E-08 2.463E-26
 ETOT  148  -2049.7674714710     0.000E+00 2.730E-08 1.599E-26
 ETOT  149  -2049.7674714710    -9.095E-13 2.505E-08 1.520E-26
 ETOT  150  -2049.7674714710     2.728E-12 2.469E-08 2.563E-26
 ETOT  151  -2049.7674714710    -3.638E-12 2.264E-08 1.813E-26
 ETOT  152  -2049.7674714710     2.728E-12 2.232E-08 3.176E-26
 ETOT  153  -2049.7674714710     9.095E-13 2.047E-08 1.821E-26
 ETOT  154  -2049.7674714710     9.095E-13 2.018E-08 1.453E-26
 ETOT  155  -2049.7674714710    -9.095E-13 1.850E-08 2.174E-26
 ETOT  156  -2049.7674714710     9.095E-13 1.824E-08 1.104E-26
 ETOT  157  -2049.7674714710     1.819E-12 1.672E-08 1.575E-26
 ETOT  158  -2049.7674714710    -3.638E-12 1.649E-08 1.633E-26
 ETOT  159  -2049.7674714710     2.728E-12 1.511E-08 2.005E-26
 ETOT  160  -2049.7674714710     0.000E+00 1.491E-08 1.157E-26
 ETOT  161  -2049.7674714710    -9.095E-13 1.366E-08 1.771E-26
 ETOT  162  -2049.7674714710     1.819E-12 1.348E-08 1.906E-26
 ETOT  163  -2049.7674714710    -2.728E-12 1.235E-08 1.222E-26
 ETOT  164  -2049.7674714710     0.000E+00 1.218E-08 1.136E-26
 ETOT  165  -2049.7674714710    -9.095E-13 1.116E-08 4.302E-26
 ETOT  166  -2049.7674714710    -9.095E-13 1.101E-08 1.354E-26
 ETOT  167  -2049.7674714710     1.819E-12 1.009E-08 1.240E-26
 ETOT  168  -2049.7674714710     9.095E-13 9.956E-09 2.310E-26
 ETOT  169  -2049.7674714710     9.095E-13 9.117E-09 1.177E-26
 ETOT  170  -2049.7674714710    -2.728E-12 9.001E-09 9.539E-27
 ETOT  171  -2049.7674714710     1.819E-12 8.241E-09 7.349E-27
 ETOT  172  -2049.7674714710    -9.095E-13 8.137E-09 2.853E-26
 ETOT  173  -2049.7674714710     9.095E-13 7.448E-09 1.599E-26
 ETOT  174  -2049.7674714710     0.000E+00 7.356E-09 1.288E-26
 ETOT  175  -2049.7674714710     0.000E+00 6.732E-09 1.270E-26
 ETOT  176  -2049.7674714710     9.095E-13 6.650E-09 9.085E-27
 ETOT  177  -2049.7674714710    -2.728E-12 6.085E-09 3.672E-26
 ETOT  178  -2049.7674714710     2.728E-12 6.011E-09 1.436E-26
 ETOT  179  -2049.7674714710     0.000E+00 5.500E-09 9.668E-27
 ETOT  180  -2049.7674714710    -1.819E-12 5.434E-09 9.103E-27
 ETOT  181  -2049.7674714710     9.095E-13 4.971E-09 2.425E-26
 ETOT  182  -2049.7674714710     9.095E-13 4.913E-09 9.449E-27
 ETOT  183  -2049.7674714710    -9.095E-13 4.493E-09 1.026E-26
 ETOT  184  -2049.7674714710    -9.095E-13 4.441E-09 4.438E-26
 ETOT  185  -2049.7674714710    -9.095E-13 4.061E-09 5.198E-26
 ETOT  186  -2049.7674714710     9.095E-13 4.015E-09 2.219E-26
 ETOT  187  -2049.7674714710    -9.095E-13 3.670E-09 3.994E-26
 ETOT  188  -2049.7674714710     1.819E-12 3.630E-09 1.197E-26
 ETOT  189  -2049.7674714710     0.000E+00 3.317E-09 1.732E-26
 ETOT  190  -2049.7674714710     1.819E-12 3.281E-09 1.410E-26
 ETOT  191  -2049.7674714710    -9.095E-13 2.999E-09 2.762E-26
 ETOT  192  -2049.7674714710    -1.819E-12 2.966E-09 1.179E-26
 ETOT  193  -2049.7674714710     0.000E+00 2.710E-09 9.211E-27
 ETOT  194  -2049.7674714710     9.095E-13 2.682E-09 1.163E-26
 ETOT  195  -2049.7674714710    -9.095E-13 2.450E-09 1.056E-26
 ETOT  196  -2049.7674714710     0.000E+00 2.424E-09 2.019E-26
 ETOT  197  -2049.7674714710     9.095E-13 2.214E-09 1.608E-26
 ETOT  198  -2049.7674714710     0.000E+00 2.192E-09 1.403E-26
 ETOT  199  -2049.7674714710     0.000E+00 2.001E-09 1.323E-26
 ETOT  200  -2049.7674714710    -9.095E-13 1.981E-09 3.446E-26
 ETOT  201  -2049.7674714710     1.819E-12 1.809E-09 2.369E-26
 ETOT  202  -2049.7674714710    -1.819E-12 1.791E-09 1.389E-26
 ETOT  203  -2049.7674714710    -9.095E-13 1.635E-09 1.426E-26
 ETOT  204  -2049.7674714710     9.095E-13 1.619E-09 1.233E-26
 ETOT  205  -2049.7674714710     0.000E+00 1.478E-09 1.637E-26
 ETOT  206  -2049.7674714710     9.095E-13 1.464E-09 2.211E-26
 ETOT  207  -2049.7674714710    -9.095E-13 1.336E-09 2.759E-26
 ETOT  208  -2049.7674714710    -2.728E-12 1.324E-09 5.740E-26
 ETOT  209  -2049.7674714710     1.819E-12 1.207E-09 2.177E-26
 ETOT  210  -2049.7674714710    -9.095E-13 1.197E-09 9.286E-27
 ETOT  211  -2049.7674714710     0.000E+00 1.091E-09 1.317E-26
 ETOT  212  -2049.7674714710     0.000E+00 1.082E-09 9.436E-27
 ETOT  213  -2049.7674714710     9.095E-13 9.866E-10 1.541E-26
 ETOT  214  -2049.7674714710     0.000E+00 9.780E-10 1.479E-26
 ETOT  215  -2049.7674714710    -9.095E-13 8.918E-10 1.581E-26
 ETOT  216  -2049.7674714710     1.819E-12 8.842E-10 1.790E-26
 ETOT  217  -2049.7674714710     0.000E+00 8.061E-10 1.267E-26
 ETOT  218  -2049.7674714710    -9.095E-13 7.994E-10 2.814E-26
 ETOT  219  -2049.7674714710     9.095E-13 7.286E-10 8.245E-27
 ETOT  220  -2049.7674714710     1.819E-12 7.227E-10 1.133E-26
 ETOT  221  -2049.7674714710    -1.819E-12 6.586E-10 1.080E-26
 ETOT  222  -2049.7674714710     0.000E+00 6.534E-10 2.430E-26
 ETOT  223  -2049.7674714710     1.819E-12 5.953E-10 6.284E-26
 ETOT  224  -2049.7674714710    -1.819E-12 5.907E-10 1.145E-26
 ETOT  225  -2049.7674714710     0.000E+00 5.381E-10 2.643E-26
 ETOT  226  -2049.7674714710     0.000E+00 5.341E-10 2.271E-26
 ETOT  227  -2049.7674714710     0.000E+00 4.864E-10 9.167E-27
 ETOT  228  -2049.7674714710     0.000E+00 4.828E-10 1.878E-26
 ETOT  229  -2049.7674714710    -9.095E-13 4.397E-10 8.250E-27
 ETOT  230  -2049.7674714710     2.728E-12 4.365E-10 3.310E-26
 ETOT  231  -2049.7674714710    -2.728E-12 3.974E-10 3.840E-26
 ETOT  232  -2049.7674714710     9.095E-13 3.947E-10 2.760E-26
 ETOT  233  -2049.7674714710     9.095E-13 3.593E-10 1.659E-26
 ETOT  234  -2049.7674714710    -9.095E-13 3.568E-10 3.647E-26
 ETOT  235  -2049.7674714710     1.819E-12 3.248E-10 1.195E-26
 ETOT  236  -2049.7674714710    -1.819E-12 3.226E-10 1.194E-26
 ETOT  237  -2049.7674714710     1.819E-12 2.936E-10 2.215E-26
 ETOT  238  -2049.7674714710     0.000E+00 2.917E-10 2.099E-26
 ETOT  239  -2049.7674714710    -3.638E-12 2.654E-10 5.053E-26
 ETOT  240  -2049.7674714710     2.728E-12 2.637E-10 1.032E-26
 ETOT  241  -2049.7674714710     0.000E+00 2.399E-10 1.601E-26
 ETOT  242  -2049.7674714710     9.095E-13 2.384E-10 1.487E-26
 ETOT  243  -2049.7674714710    -9.095E-13 2.168E-10 1.803E-26
 ETOT  244  -2049.7674714710    -1.819E-12 2.155E-10 2.368E-26
 ETOT  245  -2049.7674714710     2.728E-12 1.960E-10 1.513E-26
 ETOT  246  -2049.7674714710    -4.547E-12 1.949E-10 1.479E-26
 ETOT  247  -2049.7674714710     1.819E-12 1.772E-10 9.868E-27
 ETOT  248  -2049.7674714710     9.095E-13 1.762E-10 1.344E-26
 ETOT  249  -2049.7674714710    -9.095E-13 1.602E-10 2.099E-26
 ETOT  250  -2049.7674714710     9.095E-13 1.593E-10 8.190E-27
 ETOT  251  -2049.7674714710     0.000E+00 1.448E-10 2.048E-26
 ETOT  252  -2049.7674714710     9.095E-13 1.440E-10 2.025E-26
 ETOT  253  -2049.7674714710    -9.095E-13 1.309E-10 2.352E-26
 ETOT  254  -2049.7674714710     0.000E+00 1.302E-10 1.108E-26
 ETOT  255  -2049.7674714710     0.000E+00 1.183E-10 6.951E-27
 ETOT  256  -2049.7674714710     0.000E+00 1.177E-10 1.612E-26
 ETOT  257  -2049.7674714710    -9.095E-13 1.070E-10 1.081E-26
 ETOT  258  -2049.7674714710     0.000E+00 1.064E-10 4.301E-26
 ETOT  259  -2049.7674714710    -9.095E-13 9.668E-11 1.861E-26
 ETOT  260  -2049.7674714710     2.728E-12 9.624E-11 2.250E-26
 ETOT  261  -2049.7674714710    -1.819E-12 8.740E-11 1.016E-26
 ETOT  262  -2049.7674714710     9.095E-13 8.702E-11 1.075E-26
 ETOT  263  -2049.7674714710    -1.819E-12 7.901E-11 3.334E-26
 ETOT  264  -2049.7674714710     1.819E-12 7.868E-11 1.168E-26
 ETOT  265  -2049.7674714710     9.095E-13 7.142E-11 1.312E-26
 ETOT  266  -2049.7674714710    -1.819E-12 7.113E-11 7.714E-27
 ETOT  267  -2049.7674714710     0.000E+00 6.456E-11 8.718E-27
 ETOT  268  -2049.7674714710     9.095E-13 6.432E-11 8.936E-27
 ETOT  269  -2049.7674714710    -1.819E-12 5.836E-11 3.500E-26
 ETOT  270  -2049.7674714710     9.095E-13 5.815E-11 1.847E-26
 ETOT  271  -2049.7674714710     9.095E-13 5.276E-11 1.337E-26
 ETOT  272  -2049.7674714710    -9.095E-13 5.258E-11 1.395E-26
 ETOT  273  -2049.7674714710     1.819E-12 4.770E-11 2.219E-26
 ETOT  274  -2049.7674714710    -9.095E-13 4.754E-11 5.619E-26
 ETOT  275  -2049.7674714710    -9.095E-13 4.312E-11 2.755E-26
 ETOT  276  -2049.7674714710     0.000E+00 4.298E-11 8.209E-27
 ETOT  277  -2049.7674714710     9.095E-13 3.898E-11 1.285E-26
 ETOT  278  -2049.7674714710     9.095E-13 3.886E-11 1.110E-26
 ETOT  279  -2049.7674714710     9.095E-13 3.524E-11 1.111E-26
 ETOT  280  -2049.7674714710    -1.819E-12 3.514E-11 8.319E-27
 ETOT  281  -2049.7674714710     1.819E-12 3.185E-11 2.743E-26
 ETOT  282  -2049.7674714710     0.000E+00 3.177E-11 1.802E-26
 ETOT  283  -2049.7674714710    -9.095E-13 2.880E-11 1.255E-26
 ETOT  284  -2049.7674714710    -9.095E-13 2.873E-11 4.470E-26
 ETOT  285  -2049.7674714710     9.095E-13 2.603E-11 1.329E-26
 ETOT  286  -2049.7674714710     0.000E+00 2.597E-11 2.251E-26
 ETOT  287  -2049.7674714710     9.095E-13 2.353E-11 1.194E-26
 ETOT  288  -2049.7674714710    -1.819E-12 2.348E-11 4.438E-26
 ETOT  289  -2049.7674714710     9.095E-13 2.128E-11 4.852E-26
 ETOT  290  -2049.7674714710    -1.819E-12 2.123E-11 6.248E-26
 ETOT  291  -2049.7674714710     9.095E-13 1.923E-11 1.517E-26
 ETOT  292  -2049.7674714710     0.000E+00 1.920E-11 9.652E-27
 ETOT  293  -2049.7674714710     1.819E-12 1.739E-11 9.303E-27
 ETOT  294  -2049.7674714710    -2.728E-12 1.736E-11 1.755E-26
 ETOT  295  -2049.7674714710     1.819E-12 1.572E-11 1.206E-26
 ETOT  296  -2049.7674714710    -2.728E-12 1.569E-11 5.832E-26
 ETOT  297  -2049.7674714710     1.819E-12 1.421E-11 4.573E-26
 ETOT  298  -2049.7674714710    -9.095E-13 1.419E-11 3.687E-26
 ETOT  299  -2049.7674714710     1.819E-12 1.285E-11 1.466E-26
 ETOT  300  -2049.7674714710    -1.819E-12 1.283E-11 1.002E-26
 ETOT  301  -2049.7674714710     9.095E-13 1.161E-11 9.737E-27
 ETOT  302  -2049.7674714710     9.095E-13 1.160E-11 3.160E-26
 ETOT  303  -2049.7674714710    -9.095E-13 1.050E-11 2.204E-26
 ETOT  304  -2049.7674714710     9.095E-13 1.049E-11 1.550E-26
 ETOT  305  -2049.7674714710    -1.819E-12 9.492E-12 1.216E-26
 ETOT  306  -2049.7674714710     0.000E+00 9.485E-12 9.742E-27
 ETOT  307  -2049.7674714710     0.000E+00 8.581E-12 2.286E-26
 ETOT  308  -2049.7674714710    -1.819E-12 8.576E-12 5.209E-26
 ETOT  309  -2049.7674714710     2.728E-12 7.758E-12 1.043E-26
 ETOT  310  -2049.7674714710     0.000E+00 7.754E-12 1.212E-26
 ETOT  311  -2049.7674714710     9.095E-13 7.014E-12 1.271E-26
 ETOT  312  -2049.7674714710    -9.095E-13 7.011E-12 1.181E-26
 ETOT  313  -2049.7674714710     1.819E-12 6.341E-12 1.202E-26
 ETOT  314  -2049.7674714710    -9.095E-13 6.340E-12 4.805E-26
 ETOT  315  -2049.7674714710     0.000E+00 5.732E-12 7.928E-27
 ETOT  316  -2049.7674714710     0.000E+00 5.732E-12 8.813E-27
 ETOT  317  -2049.7674714710     0.000E+00 5.182E-12 2.505E-26
 ETOT  318  -2049.7674714710    -9.095E-13 5.183E-12 1.275E-26
 ETOT  319  -2049.7674714710    -1.819E-12 4.685E-12 1.306E-26
 ETOT  320  -2049.7674714710     1.819E-12 4.687E-12 1.094E-26
 ETOT  321  -2049.7674714710     9.095E-13 4.236E-12 3.440E-26
 ETOT  322  -2049.7674714710     0.000E+00 4.238E-12 9.413E-27
 ETOT  323  -2049.7674714710    -1.819E-12 3.829E-12 1.048E-26
 ETOT  324  -2049.7674714710     9.095E-13 3.832E-12 8.856E-27
 ETOT  325  -2049.7674714710     0.000E+00 3.462E-12 9.355E-27
 ETOT  326  -2049.7674714710    -9.095E-13 3.465E-12 7.966E-27
 ETOT  327  -2049.7674714710     1.819E-12 3.130E-12 1.049E-26
 ETOT  328  -2049.7674714710     0.000E+00 3.133E-12 2.399E-26
 ETOT  329  -2049.7674714710    -1.819E-12 2.830E-12 2.366E-26
 ETOT  330  -2049.7674714710    -1.819E-12 2.833E-12 6.204E-26
 ETOT  331  -2049.7674714710     2.728E-12 2.558E-12 8.487E-27
 ETOT  332  -2049.7674714710     9.095E-13 2.561E-12 9.470E-27
 ETOT  333  -2049.7674714710    -1.819E-12 2.313E-12 9.694E-27
 ETOT  334  -2049.7674714710     0.000E+00 2.316E-12 1.911E-26
 ETOT  335  -2049.7674714710     1.819E-12 2.091E-12 1.156E-26
 ETOT  336  -2049.7674714710    -9.095E-13 2.094E-12 1.070E-26
 ETOT  337  -2049.7674714710     9.095E-13 1.890E-12 7.616E-27
 ETOT  338  -2049.7674714710    -9.095E-13 1.893E-12 4.692E-26
 ETOT  339  -2049.7674714710     9.095E-13 1.709E-12 1.200E-26
 ETOT  340  -2049.7674714710     9.095E-13 1.712E-12 1.346E-26
 ETOT  341  -2049.7674714710    -1.819E-12 1.545E-12 1.190E-26
 ETOT  342  -2049.7674714710    -1.819E-12 1.548E-12 1.186E-26
 ETOT  343  -2049.7674714710     9.095E-13 1.397E-12 1.679E-26
 ETOT  344  -2049.7674714710    -9.095E-13 1.400E-12 9.765E-27
 ETOT  345  -2049.7674714710     1.819E-12 1.263E-12 8.974E-27
 ETOT  346  -2049.7674714710     0.000E+00 1.266E-12 1.039E-26
 ETOT  347  -2049.7674714710     9.095E-13 1.142E-12 1.240E-26
 ETOT  348  -2049.7674714710    -1.819E-12 1.144E-12 1.296E-26
 ETOT  349  -2049.7674714710     0.000E+00 1.032E-12 1.132E-26
 ETOT  350  -2049.7674714710     0.000E+00 1.035E-12 2.756E-26
 ETOT  351  -2049.7674714710    -9.095E-13 9.333E-13 2.464E-26
 ETOT  352  -2049.7674714710     0.000E+00 9.357E-13 1.183E-26
 ETOT  353  -2049.7674714710     0.000E+00 8.438E-13 1.649E-26
 ETOT  354  -2049.7674714710     1.819E-12 8.461E-13 1.072E-26
 ETOT  355  -2049.7674714710    -9.095E-13 7.629E-13 2.673E-26
 ETOT  356  -2049.7674714710     9.095E-13 7.651E-13 1.413E-26
 ETOT  357  -2049.7674714710     0.000E+00 6.897E-13 3.848E-26
 ETOT  358  -2049.7674714710     1.819E-12 6.918E-13 1.725E-26
 ETOT  359  -2049.7674714710    -2.728E-12 6.236E-13 1.025E-26
 ETOT  360  -2049.7674714710     1.819E-12 6.255E-13 1.029E-26
 ETOT  361  -2049.7674714710    -1.819E-12 5.638E-13 1.033E-26
 ETOT  362  -2049.7674714710     2.728E-12 5.656E-13 2.266E-26
 ETOT  363  -2049.7674714710    -3.638E-12 5.097E-13 9.821E-27
 ETOT  364  -2049.7674714710     2.728E-12 5.114E-13 9.359E-27
 ETOT  365  -2049.7674714710    -9.095E-13 4.608E-13 7.519E-27
 ETOT  366  -2049.7674714710    -9.095E-13 4.625E-13 3.806E-26
 ETOT  367  -2049.7674714710     1.819E-12 4.166E-13 2.575E-26
 ETOT  368  -2049.7674714710     0.000E+00 4.182E-13 1.962E-26
 ETOT  369  -2049.7674714710    -9.095E-13 3.767E-13 2.326E-26
 ETOT  370  -2049.7674714710     0.000E+00 3.781E-13 1.238E-26
 ETOT  371  -2049.7674714710     0.000E+00 3.406E-13 1.511E-26
 ETOT  372  -2049.7674714710     0.000E+00 3.419E-13 1.065E-26
 ETOT  373  -2049.7674714710     0.000E+00 3.079E-13 1.852E-26
 ETOT  374  -2049.7674714710     9.095E-13 3.092E-13 1.626E-26
 ETOT  375  -2049.7674714710     9.095E-13 2.784E-13 3.759E-26
 ETOT  376  -2049.7674714710     0.000E+00 2.796E-13 1.544E-26
 ETOT  377  -2049.7674714710    -2.728E-12 2.517E-13 1.349E-26
 ETOT  378  -2049.7674714710     9.095E-13 2.528E-13 2.756E-26
 ETOT  379  -2049.7674714710     1.819E-12 2.276E-13 3.212E-26
 ETOT  380  -2049.7674714710    -1.819E-12 2.286E-13 1.030E-26
 ETOT  381  -2049.7674714710     0.000E+00 2.057E-13 1.754E-26
 ETOT  382  -2049.7674714710     9.095E-13 2.067E-13 9.647E-27
 ETOT  383  -2049.7674714710    -9.095E-13 1.860E-13 2.033E-26
 ETOT  384  -2049.7674714710     9.095E-13 1.869E-13 3.970E-26
 ETOT  385  -2049.7674714710     0.000E+00 1.682E-13 1.903E-26
 ETOT  386  -2049.7674714710    -1.819E-12 1.690E-13 4.408E-26
 ETOT  387  -2049.7674714710     2.728E-12 1.521E-13 8.992E-27
 ETOT  388  -2049.7674714710    -1.819E-12 1.528E-13 3.639E-26
 ETOT  389  -2049.7674714710     0.000E+00 1.375E-13 1.051E-26
 ETOT  390  -2049.7674714710     1.819E-12 1.382E-13 1.160E-26
 ETOT  391  -2049.7674714710    -1.819E-12 1.243E-13 9.256E-27
 ETOT  392  -2049.7674714710     0.000E+00 1.249E-13 1.515E-26
 ETOT  393  -2049.7674714710     0.000E+00 1.124E-13 1.374E-26
 ETOT  394  -2049.7674714710    -9.095E-13 1.130E-13 4.708E-26
 ETOT  395  -2049.7674714710     9.095E-13 1.016E-13 1.211E-26
 ETOT  396  -2049.7674714710    -9.095E-13 1.022E-13 8.713E-27
 ETOT  397  -2049.7674714710     9.095E-13 9.187E-14 2.289E-26
 ETOT  398  -2049.7674714710     0.000E+00 9.238E-14 2.588E-26
 ETOT  399  -2049.7674714710    -9.095E-13 8.306E-14 7.495E-26
 ETOT  400  -2049.7674714710     9.095E-13 8.354E-14 3.719E-26
 ETOT  401  -2049.7674714710     9.095E-13 7.510E-14 1.325E-26
 ETOT  402  -2049.7674714710     0.000E+00 7.554E-14 9.991E-27
 ETOT  403  -2049.7674714710     0.000E+00 6.790E-14 2.311E-26
 ETOT  404  -2049.7674714710     0.000E+00 6.830E-14 2.297E-26
 ETOT  405  -2049.7674714710    -1.819E-12 6.139E-14 1.377E-26
 ETOT  406  -2049.7674714710     9.095E-13 6.176E-14 1.526E-26
 ETOT  407  -2049.7674714710     9.095E-13 5.551E-14 1.458E-26
 ETOT  408  -2049.7674714710    -1.819E-12 5.585E-14 9.885E-27
 ETOT  409  -2049.7674714710     0.000E+00 5.018E-14 1.603E-26
 ETOT  410  -2049.7674714710    -9.095E-13 5.050E-14 1.729E-26
 ETOT  411  -2049.7674714710     1.819E-12 4.537E-14 9.601E-27
 ETOT  412  -2049.7674714710    -1.819E-12 4.567E-14 9.382E-27
 ETOT  413  -2049.7674714710     1.819E-12 4.102E-14 1.097E-26
 ETOT  414  -2049.7674714710     9.095E-13 4.129E-14 1.560E-26
 ETOT  415  -2049.7674714710     9.095E-13 3.709E-14 1.617E-26
 ETOT  416  -2049.7674714710    -2.728E-12 3.734E-14 9.700E-27
 ETOT  417  -2049.7674714710     1.819E-12 3.354E-14 1.004E-26
 ETOT  418  -2049.7674714710    -9.095E-13 3.377E-14 1.282E-26
 ETOT  419  -2049.7674714710     0.000E+00 3.032E-14 9.177E-27
 ETOT  420  -2049.7674714710    -9.095E-13 3.053E-14 1.227E-26
 ETOT  421  -2049.7674714710     1.819E-12 2.742E-14 1.190E-26
 ETOT  422  -2049.7674714710    -1.819E-12 2.761E-14 3.918E-26
 ETOT  423  -2049.7674714710     2.728E-12 2.479E-14 2.162E-26
 ETOT  424  -2049.7674714710    -1.819E-12 2.497E-14 7.252E-27
 ETOT  425  -2049.7674714710    -9.095E-13 2.241E-14 4.538E-26
 ETOT  426  -2049.7674714710     9.095E-13 2.258E-14 1.076E-26
 ETOT  427  -2049.7674714710     9.095E-13 2.026E-14 2.564E-26
 ETOT  428  -2049.7674714710    -2.728E-12 2.041E-14 1.517E-26
 ETOT  429  -2049.7674714710     2.728E-12 1.832E-14 3.751E-26
 ETOT  430  -2049.7674714710     9.095E-13 1.846E-14 2.763E-26
 ETOT  431  -2049.7674714710     9.095E-13 1.657E-14 1.150E-26
 ETOT  432  -2049.7674714710    -1.819E-12 1.669E-14 2.848E-26
 ETOT  433  -2049.7674714710    -2.728E-12 1.498E-14 4.044E-26
 ETOT  434  -2049.7674714710     3.638E-12 1.509E-14 2.333E-26
 ETOT  435  -2049.7674714710    -2.728E-12 1.354E-14 2.214E-26
 ETOT  436  -2049.7674714710     9.095E-13 1.365E-14 3.247E-26
 ETOT  437  -2049.7674714710    -9.095E-13 1.224E-14 4.731E-26
 ETOT  438  -2049.7674714710    -2.728E-12 1.234E-14 6.433E-26
 ETOT  439  -2049.7674714710     6.366E-12 1.107E-14 2.689E-26
 ETOT  440  -2049.7674714710    -2.728E-12 1.116E-14 2.419E-26
 ETOT  441  -2049.7674714710     0.000E+00 1.001E-14 4.483E-26
 ETOT  442  -2049.7674714710    -9.095E-13 1.009E-14 2.351E-26
 ETOT  443  -2049.7674714710     0.000E+00 9.051E-15 8.596E-27
 ETOT  444  -2049.7674714710     0.000E+00 9.126E-15 1.512E-26
 ETOT  445  -2049.7674714710     9.095E-13 8.184E-15 1.095E-26
 ETOT  446  -2049.7674714710     1.819E-12 8.252E-15 1.991E-26
 ETOT  447  -2049.7674714710    -4.547E-12 7.399E-15 8.852E-26
 ETOT  448  -2049.7674714710     1.819E-12 7.462E-15 3.566E-26
 ETOT  449  -2049.7674714710     1.819E-12 6.690E-15 1.286E-26
 ETOT  450  -2049.7674714710    -2.728E-12 6.748E-15 3.732E-26
 ETOT  451  -2049.7674714710     2.728E-12 6.049E-15 2.067E-26
 ETOT  452  -2049.7674714710    -1.819E-12 6.102E-15 1.423E-26
 ETOT  453  -2049.7674714710     1.819E-12 5.469E-15 1.199E-26
 ETOT  454  -2049.7674714710     9.095E-13 5.518E-15 1.079E-26
 ETOT  455  -2049.7674714710    -2.728E-12 4.945E-15 6.823E-27
 ETOT  456  -2049.7674714710     9.095E-13 4.989E-15 2.210E-26
 ETOT  457  -2049.7674714710    -9.095E-13 4.471E-15 1.021E-26
 ETOT  458  -2049.7674714710     2.728E-12 4.512E-15 2.703E-26
 ETOT  459  -2049.7674714710    -1.819E-12 4.043E-15 1.362E-26
 ETOT  460  -2049.7674714710     9.095E-13 4.080E-15 1.165E-26
 ETOT  461  -2049.7674714710    -9.095E-13 3.656E-15 2.089E-26
 ETOT  462  -2049.7674714710    -9.095E-13 3.689E-15 1.095E-26
 ETOT  463  -2049.7674714710     9.095E-13 3.305E-15 9.668E-27
 ETOT  464  -2049.7674714710    -1.819E-12 3.336E-15 1.865E-26
 ETOT  465  -2049.7674714710     2.728E-12 2.989E-15 1.845E-26
 ETOT  466  -2049.7674714710    -1.819E-12 3.017E-15 7.849E-27
 ETOT  467  -2049.7674714710     2.728E-12 2.702E-15 2.594E-26
 ETOT  468  -2049.7674714710    -9.095E-13 2.728E-15 1.422E-26
 ETOT  469  -2049.7674714710     0.000E+00 2.443E-15 1.154E-26
 ETOT  470  -2049.7674714710    -1.819E-12 2.467E-15 1.409E-26
 ETOT  471  -2049.7674714710     0.000E+00 2.209E-15 2.041E-26
 ETOT  472  -2049.7674714710     1.819E-12 2.231E-15 1.733E-26
 ETOT  473  -2049.7674714710     0.000E+00 1.997E-15 2.046E-26
 ETOT  474  -2049.7674714710     0.000E+00 2.017E-15 1.307E-26
 ETOT  475  -2049.7674714710    -1.819E-12 1.806E-15 1.734E-26
 ETOT  476  -2049.7674714710     9.095E-13 1.824E-15 8.326E-27
 ETOT  477  -2049.7674714710     0.000E+00 1.633E-15 2.131E-26
 ETOT  478  -2049.7674714710     0.000E+00 1.649E-15 9.876E-27
 ETOT  479  -2049.7674714710    -9.095E-13 1.477E-15 2.174E-26
 ETOT  480  -2049.7674714710     9.095E-13 1.492E-15 1.362E-26
 ETOT  481  -2049.7674714710    -9.095E-13 1.335E-15 1.886E-26
 ETOT  482  -2049.7674714710     2.728E-12 1.349E-15 1.190E-26
 ETOT  483  -2049.7674714710    -1.819E-12 1.207E-15 1.946E-26
 ETOT  484  -2049.7674714710     0.000E+00 1.220E-15 1.226E-26
 ETOT  485  -2049.7674714710     0.000E+00 1.092E-15 1.139E-26
 ETOT  486  -2049.7674714710     0.000E+00 1.103E-15 2.483E-26
 ETOT  487  -2049.7674714710    -1.819E-12 9.869E-16 9.040E-27
 ETOT  488  -2049.7674714710     1.819E-12 9.973E-16 2.249E-26
 ETOT  489  -2049.7674714710     0.000E+00 8.924E-16 2.762E-26
 ETOT  490  -2049.7674714710    -9.095E-13 9.019E-16 2.089E-26
 ETOT  491  -2049.7674714710     0.000E+00 8.069E-16 3.343E-26
 ETOT  492  -2049.7674714710     0.000E+00 8.155E-16 1.246E-26
 ETOT  493  -2049.7674714710     0.000E+00 7.296E-16 2.436E-26
 ETOT  494  -2049.7674714710    -9.095E-13 7.375E-16 1.479E-26
 ETOT  495  -2049.7674714710    -9.095E-13 6.597E-16 1.372E-26
 ETOT  496  -2049.7674714710    -9.095E-13 6.669E-16 1.211E-26
 ETOT  497  -2049.7674714710     0.000E+00 5.965E-16 1.138E-26
 ETOT  498  -2049.7674714710     1.819E-12 6.031E-16 7.601E-27
 ETOT  499  -2049.7674714710     9.095E-13 5.393E-16 1.581E-26
 ETOT  500  -2049.7674714710     9.095E-13 5.453E-16 9.592E-27
 ETOT  501  -2049.7674714710    -1.819E-12 4.877E-16 7.676E-27
 ETOT  502  -2049.7674714710     9.095E-13 4.931E-16 9.206E-27
 ETOT  503  -2049.7674714710     9.095E-13 4.409E-16 2.796E-26
 ETOT  504  -2049.7674714710    -9.095E-13 4.459E-16 1.660E-26
 ETOT  505  -2049.7674714710     9.095E-13 3.987E-16 1.028E-26
 ETOT  506  -2049.7674714710     0.000E+00 4.032E-16 1.210E-26
 ETOT  507  -2049.7674714710     9.095E-13 3.605E-16 1.111E-25
 ETOT  508  -2049.7674714710    -2.728E-12 3.646E-16 1.094E-26
 ETOT  509  -2049.7674714710     1.819E-12 3.260E-16 1.019E-26
 ETOT  510  -2049.7674714710    -1.819E-12 3.297E-16 2.564E-26
 ETOT  511  -2049.7674714710     2.728E-12 2.947E-16 1.463E-26
 ETOT  512  -2049.7674714710    -9.095E-13 2.982E-16 1.136E-26
 ETOT  513  -2049.7674714710     1.819E-12 2.665E-16 1.164E-26
 ETOT  514  -2049.7674714710    -1.819E-12 2.696E-16 1.772E-26
 ETOT  515  -2049.7674714710     0.000E+00 2.410E-16 1.565E-26
 ETOT  516  -2049.7674714710     1.819E-12 2.438E-16 1.144E-26
 ETOT  517  -2049.7674714710    -9.095E-13 2.179E-16 4.744E-26
 ETOT  518  -2049.7674714710    -9.095E-13 2.205E-16 1.424E-26
 ETOT  519  -2049.7674714710     1.819E-12 1.970E-16 1.864E-26
 ETOT  520  -2049.7674714710    -1.819E-12 1.994E-16 2.385E-26
 ETOT  521  -2049.7674714710     0.000E+00 1.781E-16 3.396E-26
 ETOT  522  -2049.7674714710     0.000E+00 1.803E-16 6.993E-26
 ETOT  523  -2049.7674714710    -9.095E-13 1.611E-16 2.680E-26
 ETOT  524  -2049.7674714710     1.819E-12 1.630E-16 1.016E-26
 ETOT  525  -2049.7674714710    -9.095E-13 1.457E-16 9.729E-27
 ETOT  526  -2049.7674714710     1.819E-12 1.474E-16 4.282E-26
 ETOT  527  -2049.7674714710     0.000E+00 1.317E-16 8.586E-27
 ETOT  528  -2049.7674714710    -2.728E-12 1.333E-16 6.563E-26
 ETOT  529  -2049.7674714710     0.000E+00 1.191E-16 1.074E-26
 ETOT  530  -2049.7674714710     1.819E-12 1.206E-16 1.327E-26
 ETOT  531  -2049.7674714710    -1.819E-12 1.077E-16 1.897E-26
 ETOT  532  -2049.7674714710    -9.095E-13 1.090E-16 1.025E-26
 ETOT  533  -2049.7674714710     9.095E-13 9.736E-17 1.044E-26
 ETOT  534  -2049.7674714710     9.095E-13 9.859E-17 1.627E-26
 ETOT  535  -2049.7674714710     9.095E-13 8.804E-17 1.972E-26
 ETOT  536  -2049.7674714710    -9.095E-13 8.916E-17 1.073E-26
 ETOT  537  -2049.7674714710     1.819E-12 7.960E-17 1.317E-26
 ETOT  538  -2049.7674714710    -1.819E-12 8.062E-17 1.215E-26
 ETOT  539  -2049.7674714710     9.095E-13 7.198E-17 1.441E-26
 ETOT  540  -2049.7674714710    -1.819E-12 7.291E-17 4.420E-26
 ETOT  541  -2049.7674714710     0.000E+00 6.508E-17 9.878E-27
 ETOT  542  -2049.7674714710     0.000E+00 6.593E-17 1.563E-26
 ETOT  543  -2049.7674714710     0.000E+00 5.885E-17 1.460E-26
 ETOT  544  -2049.7674714710     2.728E-12 5.962E-17 1.053E-26
 ETOT  545  -2049.7674714710    -9.095E-13 5.321E-17 3.490E-26
 ETOT  546  -2049.7674714710    -3.638E-12 5.391E-17 5.586E-26
 ETOT  547  -2049.7674714710     1.819E-12 4.812E-17 1.100E-26
 ETOT  548  -2049.7674714710     2.728E-12 4.875E-17 8.901E-27
 ETOT  549  -2049.7674714710    -1.819E-12 4.351E-17 1.617E-26
 ETOT  550  -2049.7674714710     9.095E-13 4.409E-17 1.914E-26
 ETOT  551  -2049.7674714710     0.000E+00 3.934E-17 1.086E-26
 ETOT  552  -2049.7674714710     9.095E-13 3.987E-17 2.681E-26
 ETOT  553  -2049.7674714710    -2.728E-12 3.557E-17 2.527E-26
 ETOT  554  -2049.7674714710     9.095E-13 3.605E-17 1.423E-26
 ETOT  555  -2049.7674714710     0.000E+00 3.216E-17 1.445E-26
 ETOT  556  -2049.7674714710     9.095E-13 3.260E-17 2.477E-26
 ETOT  557  -2049.7674714710    -1.819E-12 2.908E-17 2.759E-26
 ETOT  558  -2049.7674714710     2.728E-12 2.948E-17 1.634E-26
 ETOT  559  -2049.7674714710    -9.095E-13 2.630E-17 8.478E-27
 ETOT  560  -2049.7674714710     9.095E-13 2.666E-17 9.223E-27
 ETOT  561  -2049.7674714710    -9.095E-13 2.378E-17 9.771E-27
 ETOT  562  -2049.7674714710     0.000E+00 2.411E-17 1.508E-26
 ETOT  563  -2049.7674714710    -9.095E-13 2.150E-17 2.485E-26
 ETOT  564  -2049.7674714710     0.000E+00 2.180E-17 6.478E-27
 ETOT  565  -2049.7674714710     9.095E-13 1.944E-17 8.766E-27
 ETOT  566  -2049.7674714710     0.000E+00 1.971E-17 1.093E-26
 ETOT  567  -2049.7674714710     1.819E-12 1.758E-17 1.374E-26
 ETOT  568  -2049.7674714710    -3.638E-12 1.783E-17 1.170E-26
 ETOT  569  -2049.7674714710     1.819E-12 1.590E-17 9.372E-27
 ETOT  570  -2049.7674714710     0.000E+00 1.612E-17 1.794E-26
 ETOT  571  -2049.7674714710     9.095E-13 1.437E-17 1.196E-26
 ETOT  572  -2049.7674714710    -1.819E-12 1.458E-17 9.445E-27
 ETOT  573  -2049.7674714710     9.095E-13 1.300E-17 1.380E-26
 ETOT  574  -2049.7674714710    -9.095E-13 1.318E-17 1.057E-26
 ETOT  575  -2049.7674714710     0.000E+00 1.175E-17 2.799E-26
 ETOT  576  -2049.7674714710     0.000E+00 1.192E-17 6.590E-27
 ETOT  577  -2049.7674714710     9.095E-13 1.063E-17 1.137E-26
 ETOT  578  -2049.7674714710    -9.095E-13 1.078E-17 1.638E-26
 ETOT  579  -2049.7674714710     0.000E+00 9.609E-18 6.972E-27
 ETOT  580  -2049.7674714710     0.000E+00 9.749E-18 4.673E-26
 ETOT  581  -2049.7674714710     0.000E+00 8.689E-18 7.543E-27
 ETOT  582  -2049.7674714710     9.095E-13 8.816E-18 1.491E-26
 ETOT  583  -2049.7674714710     9.095E-13 7.857E-18 1.585E-26
 ETOT  584  -2049.7674714710    -1.819E-12 7.972E-18 1.248E-26
 ETOT  585  -2049.7674714710    -1.819E-12 7.104E-18 5.684E-26
 ETOT  586  -2049.7674714710     3.638E-12 7.209E-18 1.376E-26
 ETOT  587  -2049.7674714710    -3.638E-12 6.424E-18 5.982E-26
 ETOT  588  -2049.7674714710     2.728E-12 6.519E-18 9.131E-27
 ETOT  589  -2049.7674714710    -9.095E-13 5.809E-18 7.897E-26
 ETOT  590  -2049.7674714710     1.819E-12 5.895E-18 1.547E-26
 ETOT  591  -2049.7674714710     0.000E+00 5.252E-18 1.346E-26
 ETOT  592  -2049.7674714710    -1.819E-12 5.331E-18 1.301E-26
 ETOT  593  -2049.7674714710     9.095E-13 4.749E-18 7.492E-27
 ETOT  594  -2049.7674714710    -1.819E-12 4.821E-18 4.696E-26
 ETOT  595  -2049.7674714710     9.095E-13 4.294E-18 6.792E-27
 ETOT  596  -2049.7674714710     0.000E+00 4.360E-18 1.084E-26
 ETOT  597  -2049.7674714710     0.000E+00 3.883E-18 3.453E-26
 ETOT  598  -2049.7674714710    -9.095E-13 3.942E-18 2.119E-26
 ETOT  599  -2049.7674714710     1.819E-12 3.511E-18 9.622E-27
 ETOT  600  -2049.7674714710    -1.819E-12 3.565E-18 4.044E-26
 ETOT  601  -2049.7674714710     9.095E-13 3.175E-18 1.096E-26
 ETOT  602  -2049.7674714710     0.000E+00 3.224E-18 2.297E-26
 ETOT  603  -2049.7674714710     0.000E+00 2.871E-18 2.654E-26
 ETOT  604  -2049.7674714710     0.000E+00 2.915E-18 1.032E-26
 ETOT  605  -2049.7674714710     0.000E+00 2.596E-18 2.178E-26
 ETOT  606  -2049.7674714710     0.000E+00 2.636E-18 4.144E-26
 ETOT  607  -2049.7674714710    -1.819E-12 2.347E-18 6.052E-26
 ETOT  608  -2049.7674714710     3.638E-12 2.384E-18 1.364E-26
 ETOT  609  -2049.7674714710    -1.819E-12 2.123E-18 1.118E-26
 ETOT  610  -2049.7674714710     2.728E-12 2.156E-18 1.101E-26
 ETOT  611  -2049.7674714710    -1.819E-12 1.919E-18 1.800E-26
 ETOT  612  -2049.7674714710    -9.095E-13 1.950E-18 1.051E-26
 ETOT  613  -2049.7674714710    -9.095E-13 1.736E-18 1.650E-26
 ETOT  614  -2049.7674714710     9.095E-13 1.763E-18 1.630E-26
 ETOT  615  -2049.7674714710     0.000E+00 1.569E-18 1.390E-26
 ETOT  616  -2049.7674714710     0.000E+00 1.594E-18 9.310E-27
 ETOT  617  -2049.7674714710     9.095E-13 1.419E-18 2.653E-26
 ETOT  618  -2049.7674714710    -9.095E-13 1.442E-18 3.927E-26
 ETOT  619  -2049.7674714710     1.819E-12 1.283E-18 1.283E-26
 ETOT  620  -2049.7674714710    -1.819E-12 1.304E-18 3.476E-26
 ETOT  621  -2049.7674714710     9.095E-13 1.160E-18 1.093E-26
 ETOT  622  -2049.7674714710    -9.095E-13 1.179E-18 2.350E-26
 ETOT  623  -2049.7674714710     0.000E+00 1.049E-18 2.261E-26
 ETOT  624  -2049.7674714710    -9.095E-13 1.066E-18 1.200E-26
 ETOT  625  -2049.7674714710     0.000E+00 9.487E-19 1.448E-26
 ETOT  626  -2049.7674714710     9.095E-13 9.641E-19 8.693E-27
 ETOT  627  -2049.7674714710     1.819E-12 8.579E-19 2.283E-26
 ETOT  628  -2049.7674714710    -2.728E-12 8.719E-19 6.518E-26
 ETOT  629  -2049.7674714710     9.095E-13 7.757E-19 1.363E-26
 ETOT  630  -2049.7674714710     0.000E+00 7.884E-19 1.795E-26
 ETOT  631  -2049.7674714710     0.000E+00 7.014E-19 9.214E-27
 ETOT  632  -2049.7674714710     1.819E-12 7.130E-19 9.702E-27
 ETOT  633  -2049.7674714710    -1.819E-12 6.342E-19 1.516E-26
 ETOT  634  -2049.7674714710    -9.095E-13 6.448E-19 2.251E-26
 ETOT  635  -2049.7674714710     1.819E-12 5.735E-19 1.829E-26
 ETOT  636  -2049.7674714710    -9.095E-13 5.831E-19 2.028E-26
 ETOT  637  -2049.7674714710    -9.095E-13 5.186E-19 3.501E-26
 ETOT  638  -2049.7674714710     1.819E-12 5.273E-19 1.223E-26
 ETOT  639  -2049.7674714710    -9.095E-13 4.689E-19 1.917E-26
 ETOT  640  -2049.7674714710     0.000E+00 4.768E-19 1.501E-26
 ETOT  641  -2049.7674714710     9.095E-13 4.240E-19 1.259E-26
 ETOT  642  -2049.7674714710    -9.095E-13 4.312E-19 1.058E-26
 ETOT  643  -2049.7674714710     9.095E-13 3.834E-19 2.212E-26
 ETOT  644  -2049.7674714710     0.000E+00 3.899E-19 2.165E-26
 ETOT  645  -2049.7674714710    -9.095E-13 3.467E-19 1.203E-26
 ETOT  646  -2049.7674714710     0.000E+00 3.526E-19 9.561E-27
 ETOT  647  -2049.7674714710     0.000E+00 3.135E-19 2.444E-26
 ETOT  648  -2049.7674714710     0.000E+00 3.189E-19 2.641E-26
 ETOT  649  -2049.7674714710    -9.095E-13 2.835E-19 1.091E-26
 ETOT  650  -2049.7674714710     9.095E-13 2.884E-19 2.314E-26
 ETOT  651  -2049.7674714710     0.000E+00 2.563E-19 1.618E-26
 ETOT  652  -2049.7674714710     9.095E-13 2.608E-19 1.348E-26
 ETOT  653  -2049.7674714710    -1.819E-12 2.318E-19 2.376E-26
 ETOT  654  -2049.7674714710     9.095E-13 2.358E-19 2.034E-26
 ETOT  655  -2049.7674714710    -9.095E-13 2.096E-19 4.260E-26
 ETOT  656  -2049.7674714710     2.728E-12 2.132E-19 1.856E-26
 ETOT  657  -2049.7674714710    -1.819E-12 1.895E-19 1.432E-26
 ETOT  658  -2049.7674714710     0.000E+00 1.928E-19 8.084E-27
 ETOT  659  -2049.7674714710     1.819E-12 1.714E-19 1.489E-26
 ETOT  660  -2049.7674714710    -1.819E-12 1.744E-19 1.434E-26
 ETOT  661  -2049.7674714710     0.000E+00 1.550E-19 7.940E-27
 ETOT  662  -2049.7674714710    -9.095E-13 1.577E-19 2.331E-26
 ETOT  663  -2049.7674714710     1.819E-12 1.402E-19 3.838E-26
 ETOT  664  -2049.7674714710    -9.095E-13 1.426E-19 2.366E-26
 ETOT  665  -2049.7674714710     0.000E+00 1.267E-19 1.074E-26
 ETOT  666  -2049.7674714710     3.638E-12 1.289E-19 2.314E-26
 ETOT  667  -2049.7674714710    -4.547E-12 1.146E-19 2.570E-26
 ETOT  668  -2049.7674714710     9.095E-13 1.166E-19 2.507E-26
 ETOT  669  -2049.7674714710     0.000E+00 1.036E-19 1.941E-26
 ETOT  670  -2049.7674714710    -1.819E-12 1.054E-19 5.145E-26
 ETOT  671  -2049.7674714710     1.819E-12 9.369E-20 1.376E-26
 ETOT  672  -2049.7674714710     0.000E+00 9.535E-20 2.364E-26
 ETOT  673  -2049.7674714710    -9.095E-13 8.473E-20 2.070E-26
 ETOT  674  -2049.7674714710    -1.819E-12 8.621E-20 6.563E-26
 ETOT  675  -2049.7674714710     3.638E-12 7.662E-20 1.967E-26
 ETOT  676  -2049.7674714710    -9.095E-13 7.796E-20 9.245E-27
 ETOT  677  -2049.7674714710     0.000E+00 6.929E-20 1.336E-26
 ETOT  678  -2049.7674714710    -9.095E-13 7.050E-20 8.009E-27
 ETOT  679  -2049.7674714710     2.728E-12 6.266E-20 1.281E-26
 ETOT  680  -2049.7674714710    -9.095E-13 6.375E-20 9.817E-27
 ETOT  681  -2049.7674714710     0.000E+00 5.666E-20 1.546E-26
 ETOT  682  -2049.7674714710     9.095E-13 5.765E-20 9.502E-27
 ETOT  683  -2049.7674714710    -9.095E-13 5.124E-20 9.763E-27
 ETOT  684  -2049.7674714710    -1.819E-12 5.214E-20 5.525E-26
 ETOT  685  -2049.7674714710     9.095E-13 4.633E-20 9.034E-27
 ETOT  686  -2049.7674714710     9.095E-13 4.715E-20 9.567E-27
 ETOT  687  -2049.7674714710    -9.095E-13 4.189E-20 1.709E-26
 ETOT  688  -2049.7674714710     9.095E-13 4.264E-20 9.512E-27
 ETOT  689  -2049.7674714710    -9.095E-13 3.788E-20 1.027E-26
 ETOT  690  -2049.7674714710     0.000E+00 3.856E-20 9.164E-27
 ETOT  691  -2049.7674714710     9.095E-13 3.425E-20 1.969E-26
 ETOT  692  -2049.7674714710     0.000E+00 3.488E-20 8.976E-27
 ETOT  693  -2049.7674714710    -1.819E-12 3.097E-20 1.838E-26
 ETOT  694  -2049.7674714710    -9.095E-13 3.153E-20 7.849E-26
 ETOT  695  -2049.7674714710     2.728E-12 2.800E-20 3.395E-26
 ETOT  696  -2049.7674714710    -9.095E-13 2.852E-20 1.147E-26
 ETOT  697  -2049.7674714710     0.000E+00 2.532E-20 9.974E-27
 ETOT  698  -2049.7674714710    -1.819E-12 2.579E-20 2.677E-26
 ETOT  699  -2049.7674714710     0.000E+00 2.290E-20 1.127E-26
 ETOT  700  -2049.7674714710     1.819E-12 2.333E-20 3.831E-26
 ETOT  701  -2049.7674714710     1.819E-12 2.071E-20 2.239E-26
 ETOT  702  -2049.7674714710     0.000E+00 2.109E-20 1.272E-26
 ETOT  703  -2049.7674714710    -9.095E-13 1.872E-20 1.306E-26
 ETOT  704  -2049.7674714710    -9.095E-13 9.972E-21 1.006E-26

 At SCF step  704   max residual=  9.97E-21 < tolwfr=  1.00E-20 =>converged.

 Cartesian components of stress tensor (hartree/bohr^3)
  sigma(1 1)=  1.58409685E-02  sigma(3 2)=  0.00000000E+00
  sigma(2 2)=  1.58409685E-02  sigma(3 1)=  0.00000000E+00
  sigma(3 3)=  1.55942626E-02  sigma(2 1)=  0.00000000E+00


--- !ResultsGS
iteration_state: {dtset: 1, }
comment   : Summary of ground state results
lattice_vectors:
- [  7.7624317,   0.0000000,   0.0000000, ]
- [  0.0000000,   7.7624317,   0.0000000, ]
- [  0.0000000,   0.0000000,  60.2552357, ]
lattice_lengths: [   7.76243,    7.76243,   60.25524, ]
lattice_angles: [ 90.000,  90.000,  90.000, ] # degrees, (23, 13, 12)
lattice_volume:   3.6307001E+03
convergence: {deltae: -9.095E-13, res2:  1.006E-26, residm:  9.972E-21, diffor: null, }
etotal    :  -2.04976747E+03
entropy   :   0.00000000E+00
fermie    :   1.53553543E-01
cartesian_stress_tensor: # hartree/bohr^3
- [  1.58409685E-02,   0.00000000E+00,   0.00000000E+00, ]
- [  0.00000000E+00,   1.58409685E-02,   0.00000000E+00, ]
- [  0.00000000E+00,   0.00000000E+00,   1.55942626E-02, ]
pressure_GPa:  -4.6364E+02
xred      :
- [  5.0000E-01,   0.0000E+00,   1.4635E-01, Sn]
- [  0.0000E+00,   5.0000E-01,   2.3258E-01, Sn]
- [  5.0000E-01,   0.0000E+00,   3.1682E-01, Sn]
- [  0.0000E+00,   5.0000E-01,   4.0306E-01, Sn]
- [  5.0000E-01,   0.0000E+00,   4.8730E-01, Sn]
- [  0.0000E+00,   5.0000E-01,   5.7354E-01, Sn]
- [  5.0000E-01,   0.0000E+00,   6.5778E-01, Sn]
- [  0.0000E+00,   5.0000E-01,   1.4735E-01, Se]
- [  5.0000E-01,   0.0000E+00,   2.3159E-01, Se]
- [  0.0000E+00,   5.0000E-01,   3.1782E-01, Se]
- [  5.0000E-01,   0.0000E+00,   4.0206E-01, Se]
- [  0.0000E+00,   5.0000E-01,   4.8830E-01, Se]
- [  5.0000E-01,   0.0000E+00,   5.7254E-01, Se]
- [  0.0000E+00,   5.0000E-01,   6.5877E-01, Se]
- [  5.0000E-01,   0.0000E+00,   7.5988E-01, Se]
- [  0.0000E+00,   5.0000E-01,   8.5365E-01, Se]
- [  5.0000E-01,   5.0000E-01,   8.0676E-01, Zn]
- [  0.0000E+00,   0.0000E+00,   8.0676E-01, Zn]
cartesian_forces: # hartree/bohr
- [ -0.00000000E+00,  -0.00000000E+00,  -1.38484688E-02, ]
- [ -0.00000000E+00,  -0.00000000E+00,  -1.31420392E-02, ]
- [ -0.00000000E+00,  -0.00000000E+00,   3.16189736E-03, ]
- [ -0.00000000E+00,  -0.00000000E+00,  -1.39068777E-03, ]
- [ -0.00000000E+00,  -0.00000000E+00,  -2.18956607E-03, ]
- [ -0.00000000E+00,  -0.00000000E+00,   8.57207129E-03, ]
- [ -0.00000000E+00,  -0.00000000E+00,   1.02318016E-02, ]
- [ -0.00000000E+00,  -0.00000000E+00,  -1.57668452E-02, ]
- [ -0.00000000E+00,  -0.00000000E+00,  -1.04419152E-02, ]
- [ -0.00000000E+00,  -0.00000000E+00,   1.09751165E-04, ]
- [ -0.00000000E+00,  -0.00000000E+00,   4.66378314E-04, ]
- [ -0.00000000E+00,  -0.00000000E+00,  -5.65347482E-03, ]
- [ -0.00000000E+00,  -0.00000000E+00,   1.01300335E-02, ]
- [ -0.00000000E+00,  -0.00000000E+00,   1.58458093E-02, ]
- [ -0.00000000E+00,  -0.00000000E+00,   1.04109843E-02, ]
- [ -0.00000000E+00,  -0.00000000E+00,  -1.01549585E-02, ]
- [ -0.00000000E+00,  -0.00000000E+00,   6.82961436E-03, ]
- [ -0.00000000E+00,  -0.00000000E+00,   6.82961436E-03, ]
force_length_stats: {min:   1.09751165E-04, max:   1.58458093E-02, mean:   8.06532840E-03, }
...

 Integrated electronic density in atomic spheres:
 ------------------------------------------------
 Atom  Sphere_radius  Integrated_density
    1        2.00000         10.55289223
    2        2.00000         10.57868348
    3        2.00000         10.57989570
    4        2.00000         10.57645901
    5        2.00000         10.57249082
    6        2.00000         10.56555694
    7        2.00000         10.55839949
    8        2.00000         13.29983958
    9        2.00000         13.33028001
   10        2.00000         13.32366683
   11        2.00000         13.30642589
   12        2.00000         13.31749412
   13        2.00000         13.32257746
   14        2.00000         13.28034039
   15        2.00000         13.27592724
   16        2.00000         13.27096639
   17        2.00000         18.10853516
   18        2.00000         18.10853516
================================================================================

 ----iterations are completed or convergence reached----

 Mean square residual over all n,k,spin=   43.531E-22; max=  99.717E-22
 reduced coordinates (array xred) for   18 atoms
       0.500000000000      0.000000000000      0.146350000000
       0.000000000000      0.500000000000      0.232584000000
       0.500000000000      0.000000000000      0.316825000000
       0.000000000000      0.500000000000      0.403059000000
       0.500000000000      0.000000000000      0.487301000000
       0.000000000000      0.500000000000      0.573535000000
       0.500000000000      0.000000000000      0.657776000000
       0.000000000000      0.500000000000      0.147346000000
       0.500000000000      0.000000000000      0.231588000000
       0.000000000000      0.500000000000      0.317822000000
       0.500000000000      0.000000000000      0.402063000000
       0.000000000000      0.500000000000      0.488297000000
       0.500000000000      0.000000000000      0.572538000000
       0.000000000000      0.500000000000      0.658772000000
       0.500000000000      0.000000000000      0.759877000000
       0.000000000000      0.500000000000      0.853650000000
       0.500000000000      0.500000000000      0.806764000000
       0.000000000000      0.000000000000      0.806764000000
 rms dE/dt=  3.2984E-01; max dE/dt=  9.0423E-01; dE/dt below (all hartree)
    1       0.000000000000      0.000000000000      0.788636298700
    2       0.000000000000      0.000000000000      0.746070211972
    3       0.000000000000      0.000000000000     -0.236327326261
    4       0.000000000000      0.000000000000      0.037989763822
    5       0.000000000000      0.000000000000      0.086126363982
    6       0.000000000000      0.000000000000     -0.562318631592
    7       0.000000000000      0.000000000000     -0.662326075354
    8       0.000000000000      0.000000000000      0.904228520347
    9       0.000000000000      0.000000000000      0.583373608185
   10       0.000000000000      0.000000000000     -0.052419537883
   11       0.000000000000      0.000000000000     -0.073908190806
   12       0.000000000000      0.000000000000      0.294845002116
   13       0.000000000000      0.000000000000     -0.656194011380
   14       0.000000000000      0.000000000000     -1.000599432409
   15       0.000000000000      0.000000000000     -0.673122765896
   16       0.000000000000      0.000000000000      0.566082959701
   17       0.000000000000      0.000000000000     -0.457326478513
   18       0.000000000000      0.000000000000     -0.457326478513

 cartesian coordinates (angstrom) at end:
    1      2.05385096425820     0.00000000000000     4.66647182109250
    2      0.00000000000000     2.05385096425820     7.41610305457450
    3      2.05385096425820     0.00000000000000    10.10218609304839
    4      0.00000000000000     2.05385096425820    12.85181732653039
    5      2.05385096425820     0.00000000000000    15.53793225070173
    6      0.00000000000000     2.05385096425820    18.28756348418373
    7      2.05385096425820     0.00000000000000    20.97364652265761
    8      0.00000000000000     2.05385096425820     4.69822997574784
    9      2.05385096425820     0.00000000000000     7.38434489991917
   10      0.00000000000000     2.05385096425820    10.13397613340117
   11      2.05385096425820     0.00000000000000    12.82005917187506
   12      0.00000000000000     2.05385096425820    15.56969040535706
   13      2.05385096425820     0.00000000000000    18.25577344383095
   14      0.00000000000000     2.05385096425820    21.00540467731295
   15      2.05385096425820     0.00000000000000    24.22920811750125
   16      0.00000000000000     2.05385096425820    27.21922562402197
   17      2.05385096425820     2.05385096425820    25.72423281361033
   18      0.00000000000000     0.00000000000000    25.72423281361033

 cartesian forces (hartree/bohr) at end:
    1     -0.00000000000000    -0.00000000000000    -0.01384846883713
    2     -0.00000000000000    -0.00000000000000    -0.01314203915987
    3     -0.00000000000000    -0.00000000000000     0.00316189735909
    4     -0.00000000000000    -0.00000000000000    -0.00139068776935
    5     -0.00000000000000    -0.00000000000000    -0.00218956606729
    6     -0.00000000000000    -0.00000000000000     0.00857207128665
    7     -0.00000000000000    -0.00000000000000     0.01023180164128
    8     -0.00000000000000    -0.00000000000000    -0.01576684522802
    9     -0.00000000000000    -0.00000000000000    -0.01044191523166
   10     -0.00000000000000    -0.00000000000000     0.00010975116535
   11     -0.00000000000000    -0.00000000000000     0.00046637831423
   12     -0.00000000000000    -0.00000000000000    -0.00565347481505
   13     -0.00000000000000    -0.00000000000000     0.01013003348952
   14     -0.00000000000000    -0.00000000000000     0.01584580933657
   15     -0.00000000000000    -0.00000000000000     0.01041098425357
   16     -0.00000000000000    -0.00000000000000    -0.01015495845065
   17     -0.00000000000000    -0.00000000000000     0.00682961435638
   18     -0.00000000000000    -0.00000000000000     0.00682961435638
 frms,max,avg= 5.4564163E-03 1.5845809E-02   0.000E+00  0.000E+00  7.602E-04 h/b

 cartesian forces (eV/Angstrom) at end:
    1     -0.00000000000000    -0.00000000000000    -0.71211683965853
    2     -0.00000000000000    -0.00000000000000    -0.67579076815348
    3     -0.00000000000000    -0.00000000000000     0.16259128580645
    4     -0.00000000000000    -0.00000000000000    -0.07151203435639
    5     -0.00000000000000    -0.00000000000000    -0.11259200467562
    6     -0.00000000000000    -0.00000000000000     0.44079359139039
    7     -0.00000000000000    -0.00000000000000     0.52614035056815
    8     -0.00000000000000    -0.00000000000000    -0.81076371165706
    9     -0.00000000000000    -0.00000000000000    -0.53694482489009
   10     -0.00000000000000    -0.00000000000000     0.00564363135989
   11     -0.00000000000000    -0.00000000000000     0.02398213514593
   12     -0.00000000000000    -0.00000000000000    -0.29071333919516
   13     -0.00000000000000    -0.00000000000000     0.52090722223732
   14     -0.00000000000000    -0.00000000000000     0.81482420903729
   15     -0.00000000000000    -0.00000000000000     0.53535429018036
   16     -0.00000000000000    -0.00000000000000    -0.52218891516353
   17     -0.00000000000000    -0.00000000000000     0.35119286101205
   18     -0.00000000000000    -0.00000000000000     0.35119286101205
 frms,max,avg= 2.8058019E-01 8.1482421E-01   0.000E+00  0.000E+00  3.909E-02 e/A
[...]
              kpt1     6.25000000E-02  6.25000000E-02  5.00000000E-01
                       1.87500000E-01  6.25000000E-02  5.00000000E-01
                       3.12500000E-01  6.25000000E-02  5.00000000E-01
                       4.37500000E-01  6.25000000E-02  5.00000000E-01
                       1.87500000E-01  1.87500000E-01  5.00000000E-01
                       3.12500000E-01  1.87500000E-01  5.00000000E-01
                       4.37500000E-01  1.87500000E-01  5.00000000E-01
                       3.12500000E-01  3.12500000E-01  5.00000000E-01
                       4.37500000E-01  3.12500000E-01  5.00000000E-01
                       4.37500000E-01  4.37500000E-01  5.00000000E-01
              kpt2     5.00000000E-01  5.00000000E-01  0.00000000E+00
                       4.50000000E-01  4.50000000E-01  5.00000000E-02
                       4.00000000E-01  4.00000000E-01  1.00000000E-01
                       3.50000000E-01  3.50000000E-01  1.50000000E-01
                       3.00000000E-01  3.00000000E-01  2.00000000E-01
                       2.50000000E-01  2.50000000E-01  2.50000000E-01
                       2.00000000E-01  2.00000000E-01  3.00000000E-01
                       1.50000000E-01  1.50000000E-01  3.50000000E-01
                       1.00000000E-01  1.00000000E-01  4.00000000E-01
                       5.00000000E-02  5.00000000E-02  4.50000000E-01
                       0.00000000E+00  0.00000000E+00  5.00000000E-01
                       0.00000000E+00  0.00000000E+00  4.58333333E-01
                       0.00000000E+00  0.00000000E+00  4.16666667E-01
                       0.00000000E+00  0.00000000E+00  3.75000000E-01
                       0.00000000E+00  0.00000000E+00  3.33333333E-01
                       0.00000000E+00  0.00000000E+00  2.91666667E-01
                       0.00000000E+00  0.00000000E+00  2.50000000E-01
                       0.00000000E+00  0.00000000E+00  2.08333333E-01
                       0.00000000E+00  0.00000000E+00  1.66666667E-01
                       0.00000000E+00  0.00000000E+00  1.25000000E-01
                       0.00000000E+00  0.00000000E+00  8.33333333E-02
                       0.00000000E+00  0.00000000E+00  4.16666667E-02
                       0.00000000E+00  0.00000000E+00  0.00000000E+00
                       2.77777778E-02  2.77777778E-02  2.77777778E-02
                       5.55555556E-02  5.55555556E-02  5.55555556E-02
                       8.33333333E-02  8.33333333E-02  8.33333333E-02
                       1.11111111E-01  1.11111111E-01  1.11111111E-01
                       1.38888889E-01  1.38888889E-01  1.38888889E-01
                       1.66666667E-01  1.66666667E-01  1.66666667E-01
                       1.94444444E-01  1.94444444E-01  1.94444444E-01
                       2.22222222E-01  2.22222222E-01  2.22222222E-01
                       2.50000000E-01  2.50000000E-01  2.50000000E-01
                       2.77777778E-01  2.77777778E-01  2.77777778E-01
                       3.05555556E-01  3.05555556E-01  3.05555556E-01
                       3.33333333E-01  3.33333333E-01  3.33333333E-01
                       3.61111111E-01  3.61111111E-01  3.61111111E-01
                       3.88888889E-01  3.88888889E-01  3.88888889E-01
                       4.16666667E-01  4.16666667E-01  4.16666667E-01
                       4.44444444E-01  4.44444444E-01  4.44444444E-01
                       4.72222222E-01  4.72222222E-01  4.72222222E-01
                       5.00000000E-01  5.00000000E-01  5.00000000E-01
                       4.37500000E-01  5.00000000E-01  5.00000000E-01
                       3.75000000E-01  5.00000000E-01  5.00000000E-01
                       3.12500000E-01  5.00000000E-01  5.00000000E-01
                       2.50000000E-01  5.00000000E-01  5.00000000E-01
                       1.87500000E-01  5.00000000E-01  5.00000000E-01
                       1.25000000E-01  5.00000000E-01  5.00000000E-01
                       6.25000000E-02  5.00000000E-01  5.00000000E-01
                       0.00000000E+00  5.00000000E-01  5.00000000E-01
                       0.00000000E+00  5.00000000E-01  4.37500000E-01
              kpt3     6.25000000E-02  6.25000000E-02  5.00000000E-01
                       1.87500000E-01  6.25000000E-02  5.00000000E-01
                       3.12500000E-01  6.25000000E-02  5.00000000E-01
                       4.37500000E-01  6.25000000E-02  5.00000000E-01
                       1.87500000E-01  1.87500000E-01  5.00000000E-01
                       3.12500000E-01  1.87500000E-01  5.00000000E-01
                       4.37500000E-01  1.87500000E-01  5.00000000E-01
                       3.12500000E-01  3.12500000E-01  5.00000000E-01
                       4.37500000E-01  3.12500000E-01  5.00000000E-01
                       4.37500000E-01  4.37500000E-01  5.00000000E-01
                       outvar_i_n : Printing only first  50 k-points.
           kptopt1          1
           kptopt2         -5
           kptopt3          1
         kptrlatt        8    0    0      0    8    0      0    0    1
          kptrlen1     6.20994534E+01
          kptrlen2     3.00000000E+01
          kptrlen3     6.20994534E+01
P           mkmem1          2
P           mkmem2         10
P           mkmem3          2
            natom          18
           natsph3       4
            nband1        152
            nband2        152
            nband3        152
           nbdbuf1          0
           nbdbuf2          2
           nbdbuf3          2
           ndtset           3
            ngfft          36      36     270
             nkpt1         10
             nkpt2         57
             nkpt3         10
            nstep1       1000
            nstep2        300
            nstep3        300
             nsym           8
           ntypat           3
              occ      2.000000  2.000000  2.000000  2.000000  2.000000  2.000000
                       2.000000  2.000000  2.000000  2.000000  2.000000  2.000000
                       2.000000  2.000000  2.000000  2.000000  2.000000  2.000000
                       2.000000  2.000000  2.000000  2.000000  2.000000  2.000000
                       2.000000  2.000000  2.000000  2.000000  2.000000  2.000000
                       2.000000  2.000000  2.000000  2.000000  2.000000  2.000000
                       2.000000  2.000000  2.000000  2.000000  2.000000  2.000000
                       2.000000  2.000000  2.000000  2.000000  2.000000  2.000000
                       2.000000  2.000000  2.000000  2.000000  2.000000  2.000000
                       2.000000  2.000000  2.000000  2.000000  2.000000  2.000000
                       2.000000  2.000000  2.000000  2.000000  2.000000  2.000000
                       2.000000  2.000000  2.000000  2.000000  2.000000  2.000000
                       2.000000  2.000000  2.000000  2.000000  2.000000  2.000000
                       2.000000  2.000000  2.000000  2.000000  2.000000  2.000000
                       2.000000  2.000000  2.000000  2.000000  2.000000  2.000000
                       2.000000  2.000000  2.000000  2.000000  2.000000  2.000000
                       2.000000  2.000000  2.000000  2.000000  2.000000  2.000000
                       2.000000  2.000000  2.000000  2.000000  2.000000  2.000000
                       2.000000  2.000000  2.000000  2.000000  2.000000  2.000000
                       2.000000  2.000000  2.000000  2.000000  2.000000  2.000000
                       2.000000  2.000000  2.000000  2.000000  2.000000  2.000000
                       2.000000  2.000000  2.000000  2.000000  2.000000  2.000000
                       2.000000  2.000000  2.000000  2.000000  2.000000  2.000000
                       2.000000  2.000000  2.000000  0.000000  0.000000  0.000000
                       0.000000  0.000000  0.000000  0.000000  0.000000  0.000000
                       0.000000  0.000000
           prtcif           1
           prtdos1          0
           prtdos2          0
           prtdos3          3
            rprim      1.0000000000E+00  0.0000000000E+00  0.0000000000E+00
                       0.0000000000E+00  1.0000000000E+00  0.0000000000E+00
                       0.0000000000E+00  0.0000000000E+00  7.7624175269E+00
           shiftk      5.00000000E-01  5.00000000E-01  5.00000000E-01
          spgroup          99
           strten1     1.5840968471E-02  1.5840968471E-02  1.5594262585E-02
                       0.0000000000E+00  0.0000000000E+00  0.0000000000E+00
           symrel      1  0  0   0  1  0   0  0  1       1  0  0   0 -1  0   0  0  1
                      -1  0  0   0 -1  0   0  0  1      -1  0  0   0  1  0   0  0  1
                       0  1  0   1  0  0   0  0  1       0  1  0  -1  0  0   0  0  1
                       0 -1  0  -1  0  0   0  0  1       0 -1  0   1  0  0   0  0  1
            tnons      0.0000000  0.0000000  0.0000000     0.0000000 -0.0000000  0.0000000
                      -0.0000000 -0.0000000  0.0000000    -0.0000000  0.0000000  0.0000000
                       0.5000000  0.5000000  0.0000000     0.5000000  0.5000000  0.0000000
                       0.5000000  0.5000000  0.0000000     0.5000000  0.5000000  0.0000000
           tolwfr      1.00000000E-20
            typat      1  1  1  1  1  1  1  2  2  2  2  2  2  2  2  2  3  3
           vdw_xc           5
              wtk1       0.06250    0.12500    0.12500    0.12500    0.06250    0.12500
                         0.12500    0.06250    0.12500    0.06250
              wtk2       1.00000    1.00000    1.00000    1.00000    1.00000    1.00000
                         1.00000    1.00000    1.00000    1.00000    1.00000    1.00000
                         1.00000    1.00000    1.00000    1.00000    1.00000    1.00000
                         1.00000    1.00000    1.00000    1.00000    1.00000    1.00000
                         1.00000    1.00000    1.00000    1.00000    1.00000    1.00000
                         1.00000    1.00000    1.00000    1.00000    1.00000    1.00000
                         1.00000    1.00000    1.00000    1.00000    1.00000    1.00000
                         1.00000    1.00000    1.00000    1.00000    1.00000    1.00000
                         1.00000    1.00000
              wtk3       0.06250    0.12500    0.12500    0.12500    0.06250    0.12500
                         0.12500    0.06250    0.12500    0.06250
                       outvars : Printing only first  50 k-points.
           xangst      2.0538509643E+00  0.0000000000E+00  4.6664718211E+00
                       0.0000000000E+00  2.0538509643E+00  7.4161030546E+00
                       2.0538509643E+00  0.0000000000E+00  1.0102186093E+01
                       0.0000000000E+00  2.0538509643E+00  1.2851817327E+01
                       2.0538509643E+00  0.0000000000E+00  1.5537932251E+01
                       0.0000000000E+00  2.0538509643E+00  1.8287563484E+01
                       2.0538509643E+00  0.0000000000E+00  2.0973646523E+01
                       0.0000000000E+00  2.0538509643E+00  4.6982299757E+00
                       2.0538509643E+00  0.0000000000E+00  7.3843448999E+00
                       0.0000000000E+00  2.0538509643E+00  1.0133976133E+01
                       2.0538509643E+00  0.0000000000E+00  1.2820059172E+01
                       0.0000000000E+00  2.0538509643E+00  1.5569690405E+01
                       2.0538509643E+00  0.0000000000E+00  1.8255773444E+01
                       0.0000000000E+00  2.0538509643E+00  2.1005404677E+01
                       2.0538509643E+00  0.0000000000E+00  2.4229208118E+01
                       0.0000000000E+00  2.0538509643E+00  2.7219225624E+01
                       2.0538509643E+00  2.0538509643E+00  2.5724232814E+01
                       0.0000000000E+00  0.0000000000E+00  2.5724232814E+01
            xcart      3.8812158402E+00  0.0000000000E+00  8.8183537487E+00
                       0.0000000000E+00  3.8812158402E+00  1.4014403746E+01
                       3.8812158402E+00  0.0000000000E+00  1.9090365059E+01
                       0.0000000000E+00  3.8812158402E+00  2.4286415057E+01
                       3.8812158402E+00  0.0000000000E+00  2.9362436625E+01
                       0.0000000000E+00  3.8812158402E+00  3.4558486623E+01
                       3.8812158402E+00  0.0000000000E+00  3.9634447936E+01
                       0.0000000000E+00  3.8812158402E+00  8.8783679635E+00
                       3.8812158402E+00  0.0000000000E+00  1.3954389532E+01
                       0.0000000000E+00  3.8812158402E+00  1.9150439529E+01
                       3.8812158402E+00  0.0000000000E+00  2.4226400842E+01
                       0.0000000000E+00  3.8812158402E+00  2.9422450840E+01
                       3.8812158402E+00  0.0000000000E+00  3.4498412153E+01
                       0.0000000000E+00  3.8812158402E+00  3.9694462151E+01
                       3.8812158402E+00  0.0000000000E+00  4.5786567759E+01
                       0.0000000000E+00  3.8812158402E+00  5.1436881979E+01
                       3.8812158402E+00  3.8812158402E+00  4.8611754996E+01
                       0.0000000000E+00  0.0000000000E+00  4.8611754996E+01
             xred      5.0000000000E-01  0.0000000000E+00  1.4635000000E-01
                       0.0000000000E+00  5.0000000000E-01  2.3258400000E-01
                       5.0000000000E-01  0.0000000000E+00  3.1682500000E-01
                       0.0000000000E+00  5.0000000000E-01  4.0305900000E-01
                       5.0000000000E-01  0.0000000000E+00  4.8730100000E-01
                       0.0000000000E+00  5.0000000000E-01  5.7353500000E-01
                       5.0000000000E-01  0.0000000000E+00  6.5777600000E-01
                       0.0000000000E+00  5.0000000000E-01  1.4734600000E-01
                       5.0000000000E-01  0.0000000000E+00  2.3158800000E-01
                       0.0000000000E+00  5.0000000000E-01  3.1782200000E-01
                       5.0000000000E-01  0.0000000000E+00  4.0206300000E-01
                       0.0000000000E+00  5.0000000000E-01  4.8829700000E-01
                       5.0000000000E-01  0.0000000000E+00  5.7253800000E-01
                       0.0000000000E+00  5.0000000000E-01  6.5877200000E-01
                       5.0000000000E-01  0.0000000000E+00  7.5987700000E-01
                       0.0000000000E+00  5.0000000000E-01  8.5365000000E-01
                       5.0000000000E-01  5.0000000000E-01  8.0676400000E-01
                       0.0000000000E+00  0.0000000000E+00  8.0676400000E-01
            znucl       50.00000   34.00000   30.00000

================================================================================


- Timing analysis has been suppressed with timopt=0



================================================================================

 Suggested references for the acknowledgment of ABINIT usage.

 The users of ABINIT have little formal obligations with respect to the ABINIT group
 (those specified in the GNU General Public License, http://www.gnu.org/copyleft/gpl.txt).
 However, it is common practice in the scientific literature,
 to acknowledge the efforts of people that have made the research possible.
 In this spirit, please find below suggested citations of work written by ABINIT developers,
 corresponding to implementations inside of ABINIT that you have used in the present run.
 Note also that it will be of great value to readers of publications presenting these results,
 to read papers enabling them to understand the theoretical formalism and details
 of the ABINIT implementation.
 For information on why they are suggested, see also https://docs.abinit.org/theory/acknowledgments.
-
- [1] Libxc: A library of exchange and correlation functionals for density functional theory.
- M.A.L. Marques, M.J.T. Oliveira, T. Burnus, Computer Physics Communications 183, 2227 (2012).
- Comment: to be cited when LibXC is used (negative value of ixc)
- Strong suggestion to cite this paper.
- DOI and bibtex: see https://docs.abinit.org/theory/bibliography/#marques2012
-
- [2] The Abinit project: Impact, environment and recent developments.
- Computer Phys. Comm. 248, 107042 (2020).
- X.Gonze, B. Amadon, G. Antonius, F.Arnardi, L.Baguet, J.-M.Beuken,
- J.Bieder, F.Bottin, J.Bouchet, E.Bousquet, N.Brouwer, F.Bruneval,
- G.Brunin, T.Cavignac, J.-B. Charraud, Wei Chen, M.Cote, S.Cottenier,
- J.Denier, G.Geneste, Ph.Ghosez, M.Giantomassi, Y.Gillet, O.Gingras,
- D.R.Hamann, G.Hautier, Xu He, N.Helbig, N.Holzwarth, Y.Jia, F.Jollet,
- W.Lafargue-Dit-Hauret, K.Lejaeghere, M.A.L.Marques, A.Martin, C.Martins,
- H.P.C. Miranda, F.Naccarato, K. Persson, G.Petretto, V.Planes, Y.Pouillon,
- S.Prokhorenko, F.Ricci, G.-M.Rignanese, A.H.Romero, M.M.Schmitt, M.Torrent,
- M.J.van Setten, B.Van Troeye, M.J.Verstraete, G.Zerah and J.W.Zwanzig
- Comment: the fifth generic paper describing the ABINIT project.
- Note that a version of this paper, that is not formatted for Computer Phys. Comm. 
- is available at https://www.abinit.org/sites/default/files/ABINIT20.pdf .
- The licence allows the authors to put it on the Web.
- DOI and bibtex: see https://docs.abinit.org/theory/bibliography/#gonze2020
-
- [3] Optimized norm-conserving Vanderbilt pseudopotentials.
- D.R. Hamann, Phys. Rev. B 88, 085117 (2013).
- Comment: Some pseudopotential generated using the ONCVPSP code were used.
- DOI and bibtex: see https://docs.abinit.org/theory/bibliography/#hamann2013
-
- [4] ABINIT: Overview, and focus on selected capabilities
- J. Chem. Phys. 152, 124102 (2020).
- A. Romero, D.C. Allan, B. Amadon, G. Antonius, T. Applencourt, L.Baguet,
- J.Bieder, F.Bottin, J.Bouchet, E.Bousquet, F.Bruneval,
- G.Brunin, D.Caliste, M.Cote,
- J.Denier, C. Dreyer, Ph.Ghosez, M.Giantomassi, Y.Gillet, O.Gingras,
- D.R.Hamann, G.Hautier, F.Jollet, G. Jomard,
- A.Martin, 
- H.P.C. Miranda, F.Naccarato, G.Petretto, N.A. Pike, V.Planes,
- S.Prokhorenko, T. Rangel, F.Ricci, G.-M.Rignanese, M.Royo, M.Stengel, M.Torrent,
- M.J.van Setten, B.Van Troeye, M.J.Verstraete, J.Wiktor, J.W.Zwanziger, and X.Gonze.
- Comment: a global overview of ABINIT, with focus on selected capabilities .
- Note that a version of this paper, that is not formatted for J. Chem. Phys 
- is available at https://www.abinit.org/sites/default/files/ABINIT20_JPC.pdf .
- The licence allows the authors to put it on the Web.
- DOI and bibtex: see https://docs.abinit.org/theory/bibliography/#romero2020
-
- [5] Recent developments in the ABINIT software package.
- Computer Phys. Comm. 205, 106 (2016).
- X.Gonze, F.Jollet, F.Abreu Araujo, D.Adams, B.Amadon, T.Applencourt,
- C.Audouze, J.-M.Beuken, J.Bieder, A.Bokhanchuk, E.Bousquet, F.Bruneval
- D.Caliste, M.Cote, F.Dahm, F.Da Pieve, M.Delaveau, M.Di Gennaro,
- B.Dorado, C.Espejo, G.Geneste, L.Genovese, A.Gerossier, M.Giantomassi,
- Y.Gillet, D.R.Hamann, L.He, G.Jomard, J.Laflamme Janssen, S.Le Roux,
- A.Levitt, A.Lherbier, F.Liu, I.Lukacevic, A.Martin, C.Martins,
- M.J.T.Oliveira, S.Ponce, Y.Pouillon, T.Rangel, G.-M.Rignanese,
- A.H.Romero, B.Rousseau, O.Rubel, A.A.Shukri, M.Stankovski, M.Torrent,
- M.J.Van Setten, B.Van Troeye, M.J.Verstraete, D.Waroquier, J.Wiktor,
- B.Xu, A.Zhou, J.W.Zwanziger.
- Comment: the fourth generic paper describing the ABINIT project.
- Note that a version of this paper, that is not formatted for Computer Phys. Comm. 
- is available at https://www.abinit.org/sites/default/files/ABINIT16.pdf .
- The licence allows the authors to put it on the Web.
- DOI and bibtex: see https://docs.abinit.org/theory/bibliography/#gonze2016
-
- Proc.   0 individual time (sec): cpu=      28872.9  wall=      28873.9

================================================================================

 Calculation completed.
.Delivered   0 WARNINGs and   0 COMMENTs to log file.
+Overall time at end (sec) : cpu=     173237.9  wall=     173243.2
