  ABINIT 9.2.2
  
 DeprecationWarning: 

     The files file has been deprecated in Abinit9 and will be removed in Abinit10.
     Use the syntax `abinit t01.abi` where t01.abi is an input with pseudopotenials.

            pseudos = "al.psp8, as.psp8"


  Give name for formatted input file: 
Cs2TiI6.in
  Give name for formatted output file:
Cs2TiI6.out
  Give root name for generic input files:
Cs2TiI6i
  Give root name for generic output files:
Cs2TiI6o
  Give root name for generic temporary files:
Cs2TiI6

.Version 9.2.2 of ABINIT 
.(MPI version, prepared for a x86_64_linux_gnu9.3 computer) 

.Copyright (C) 1998-2020 ABINIT group . 
 ABINIT comes with ABSOLUTELY NO WARRANTY.
 It is free software, and you are welcome to redistribute it
 under certain conditions (GNU General Public License,
 see ~abinit/COPYING or http://www.gnu.org/copyleft/gpl.txt).

 ABINIT is a project of the Universite Catholique de Louvain,
 Corning Inc. and other collaborators, see ~abinit/doc/developers/contributors.txt .
 Please read https://docs.abinit.org/theory/acknowledgments for suggested
 acknowledgments of the ABINIT effort.
 For more information, see https://www.abinit.org .

.Starting date : Sun 25 Feb 2024.
- ( at 20h59 )
  
- The starting date is more than 3 years after the initial release
- of this version of ABINIT, namely Nov 2020.
- This version of ABINIT is not supported anymore.
- Action: please, switch to a more recent version of ABINIT.

 ++++++++++++++++++++++++++++++++++++++++++++++++++++++++++++++++++++++++++++++

 === Build Information === 
  Version       : 9.2.2
  Build target  : x86_64_linux_gnu9.3
  Build date    : 20210501

 === Compiler Suite === 
  C compiler       : gnu9.3
  C++ compiler     : generic0.0
  Fortran compiler : gnu9.3
  CFLAGS           : -g -O2 -mtune=native -march=native
  CXXFLAGS         : 
  FCFLAGS          : -g -ffree-line-length-none
  FC_LDFLAGS       : 

 === Optimizations === 
  Debug level        : basic
  Optimization level : standard
  Architecture       : unknown_unknown

 === Multicore === 
  Parallel build : yes
  Parallel I/O   : yes
  openMP support : 
  GPU support    : 

 === Connectors / Fallbacks === 
  LINALG flavor  : netlib
  FFT flavor     : goedecker
  HDF5           : yes
  NetCDF         : yes
  NetCDF Fortran : yes
  LibXC          : yes
  Wannier90      : no

 === Experimental features === 
  Exports             : 
  GW double-precision : 

 ++++++++++++++++++++++++++++++++++++++++++++++++++++++++++++++++++++++++++++++


 ++++++++++++++++++++++++++++++++++++++++++++++++++++++++++++++++++++++++++++++
 Default optimizations:
   -O2 -mtune=native -march=native


 Optimizations for 43_ptgroups:
   -O0


 ++++++++++++++++++++++++++++++++++++++++++++++++++++++++++++++++++++++++++++++


 ++++++++++++++++++++++++++++++++++++++++++++++++++++++++++++++++++++++++++++++
 CPP options activated during the build:

                    CC_GNU                    FC_GNU HAVE_FC_ALLOCATABLE_DT...
 
             HAVE_FC_ASYNC         HAVE_FC_BACKTRACE  HAVE_FC_COMMAND_ARGUMENT
 
      HAVE_FC_COMMAND_LINE        HAVE_FC_CONTIGUOUS           HAVE_FC_CPUTIME
 
              HAVE_FC_EXIT             HAVE_FC_FLUSH             HAVE_FC_GAMMA
 
            HAVE_FC_GETENV   HAVE_FC_IEEE_ARITHMETIC   HAVE_FC_IEEE_EXCEPTIONS
 
          HAVE_FC_INT_QUAD             HAVE_FC_IOMSG     HAVE_FC_ISO_C_BINDING
 
  HAVE_FC_ISO_FORTRAN_2008        HAVE_FC_LONG_LINES        HAVE_FC_MOVE_ALLOC
 
  HAVE_FC_ON_THE_FLY_SHAPE           HAVE_FC_PRIVATE         HAVE_FC_PROTECTED
 
           HAVE_FC_SHIFTLR         HAVE_FC_STREAM_IO            HAVE_FC_SYSTEM
 
          HAVE_FORTRAN2003                 HAVE_HDF5        HAVE_LIBPAW_ABINIT
 
      HAVE_LIBTETRA_ABINIT                HAVE_LIBXC                  HAVE_MPI
 
                 HAVE_MPI2       HAVE_MPI_IALLGATHER       HAVE_MPI_IALLREDUCE
 
        HAVE_MPI_IALLTOALL       HAVE_MPI_IALLTOALLV           HAVE_MPI_IBCAST
 
         HAVE_MPI_IGATHERV        HAVE_MPI_INTEGER16               HAVE_MPI_IO
 
 HAVE_MPI_TYPE_CREATE_S...               HAVE_NETCDF       HAVE_NETCDF_FORTRAN
 
             HAVE_OS_LINUX         HAVE_TIMER_ABINIT                            
 ++++++++++++++++++++++++++++++++++++++++++++++++++++++++++++++++++++++++++++++

- input  file    -> Cs2TiI6.in
- output file    -> Cs2TiI6.out
- root for input  files -> Cs2TiI6i
- root for output files -> Cs2TiI6o

-instrng: 67 lines of input have been read from file Cs2TiI6.in


 Please give name of formatted atomic psp file (and finish with a newline character)
 For atom type 1, psp file is ../../../Psps_for_tests/ATOMICDATA_NC/Sn.psp8

 Please give name of formatted atomic psp file (and finish with a newline character)
 For atom type 2, psp file is ../../../Psps_for_tests/ATOMICDATA_NC/Se.psp8
  read the values zionpsp= 14.0 , pspcod=   8 , lmax=   2
  read the values zionpsp= 16.0 , pspcod=   8 , lmax=   2

 inpspheads: deduce mpsang = 3, n1xccc = 2501.

======================================================= 
 invars1m : enter jdtset= 1

 symlatt: the Bravais lattice is tP (primitive tetragonal)
  xred   is defined in input file
 ingeo: takes atomic coordinates from input array xred

--- !WARNING
src_file: m_ingeo.F90
src_line: 887
message: |
    The tolerance on symmetries =   1.000E-05 is bigger than 1.0e-8.
    In order to avoid spurious effects, the atomic coordinates have been
    symmetrized before storing them in the dataset internal variable.
    So, do not be surprised by the fact that your input variables (xcart, xred, ...)
    do not correspond to the ones echoed by ABINIT, the latter being used to do the calculations.
    In order to avoid this symmetrization (e.g. for specific debugging/development), decrease tolsym to 1.0e-8 or lower.
...


 symlatt: the Bravais lattice is tP (primitive tetragonal)

 symlatt: the Bravais lattice is tP (primitive tetragonal)
 symspgr: spgroup= 129  P4/n m m   (=D4h^7)
 symspgr: optical characteristics = uniaxial
 Optical axis (in reduced coordinates, real space ) :   0   0   1

======================================================= 
 invars1m : enter jdtset= 2

 symlatt: the Bravais lattice is tP (primitive tetragonal)
  xred   is defined in input file
 ingeo: takes atomic coordinates from input array xred

--- !WARNING
src_file: m_ingeo.F90
src_line: 887
message: |
    The tolerance on symmetries =   1.000E-05 is bigger than 1.0e-8.
    In order to avoid spurious effects, the atomic coordinates have been
    symmetrized before storing them in the dataset internal variable.
    So, do not be surprised by the fact that your input variables (xcart, xred, ...)
    do not correspond to the ones echoed by ABINIT, the latter being used to do the calculations.
    In order to avoid this symmetrization (e.g. for specific debugging/development), decrease tolsym to 1.0e-8 or lower.
...


 symlatt: the Bravais lattice is tP (primitive tetragonal)

 symlatt: the Bravais lattice is tP (primitive tetragonal)
 symspgr: spgroup= 129  P4/n m m   (=D4h^7)
 symspgr: optical characteristics = uniaxial
 Optical axis (in reduced coordinates, real space ) :   0   0   1

======================================================= 
 invars1m : enter jdtset= 3

 symlatt: the Bravais lattice is tP (primitive tetragonal)
  xred   is defined in input file
 ingeo: takes atomic coordinates from input array xred

--- !WARNING
src_file: m_ingeo.F90
src_line: 887
message: |
    The tolerance on symmetries =   1.000E-05 is bigger than 1.0e-8.
    In order to avoid spurious effects, the atomic coordinates have been
    symmetrized before storing them in the dataset internal variable.
    So, do not be surprised by the fact that your input variables (xcart, xred, ...)
    do not correspond to the ones echoed by ABINIT, the latter being used to do the calculations.
    In order to avoid this symmetrization (e.g. for specific debugging/development), decrease tolsym to 1.0e-8 or lower.
...


 symlatt: the Bravais lattice is tP (primitive tetragonal)

 symlatt: the Bravais lattice is tP (primitive tetragonal)
 symspgr: spgroup= 129  P4/n m m   (=D4h^7)
 symspgr: optical characteristics = uniaxial
 Optical axis (in reduced coordinates, real space ) :   0   0   1

 chkneu: nelect_occ=  0.18000000E+03, zval=  0.18000000E+03,
         and input value of charge=  0.00000000000000E+00,
   nelec_occ is computed from occ and wtk, iimage=    1
   zval is nominal charge of all nuclei, computed from zion (read in psp),
   charge is an input variable (usually 0).

--- !WARNING
src_file: m_dtset.F90
src_line: 1218
message: |
    
    These should obey zval-nelect_occ=charge to better than:  0.10E-10
...

Action: check input file for occ,wtk, and charge.
Note that wtk is NOT automatically normalized when occopt=2,
but IS automatically normalized otherwise.

 For input ecut=  2.250000E+01 best grid ngfft=      36      36     192
       max ecut=  2.417113E+01

 ==== FFT mesh ====
  FFT mesh divisions ........................    36   36  192
  Augmented FFT divisions ...................    37   37  192
  FFT algorithm .............................   112
  FFT cache size ............................    16
 getmpw: optimal value of mpw= 13371

--- !WARNING
src_file: m_mpinfo.F90
src_line: 2281
message: |
    nkpt*nsppol (57) is not a multiple of nproc_kpt (6)
    The k-point parallelisation is inefficient. (Ignore this warning if this is not a GS run)
...

 For input ecut=  2.250000E+01 best grid ngfft=      36      36     192
       max ecut=  2.417113E+01

 ==== FFT mesh ====
  FFT mesh divisions ........................    36   36  192
  Augmented FFT divisions ...................    37   37  192
  FFT algorithm .............................   112
  FFT cache size ............................    16
 getmpw: optimal value of mpw= 13396
 For input ecut=  2.250000E+01 best grid ngfft=      36      36     192
       max ecut=  2.417113E+01

 ==== FFT mesh ====
  FFT mesh divisions ........................    36   36  192
  Augmented FFT divisions ...................    37   37  192
  FFT algorithm .............................   112
  FFT cache size ............................    16
 getmpw: optimal value of mpw= 13371

 DATASET    1 : space group P4/n m m (#129); Bravais tP (primitive tetrag.)

 getdim_nloc : deduce lmnmax  =  18, lnmax  =   6,
                      lmnmaxso=  18, lnmaxso=   6.
memory: analysis of memory needs
================================================================================
 Values of the parameters that define the memory need for DATASET  1.
     intxc =       0    ionmov =       0      iscf =      17    lmnmax =       6
     lnmax =       6     mgfft =     192  mpssoang =       3    mqgrid =    9263
     natom =      12  nloc_mem =       1    nspden =       1   nspinor =       1
    nsppol =       1      nsym =      16    n1xccc =    2501    ntypat =       2
    occopt =       1   xclevel =       2
-    mband =         102        mffmem =           1         mkmem =           7
       mpw =       13371          nfft =      248832          nkpt =          42
================================================================================
P This job should need less than                     235.346 Mbytes of memory.
  Rough estimation (10% accuracy) of disk space for files :
_ WF disk file :    874.046 Mbytes ; DEN or POT disk file :      1.900 Mbytes.
================================================================================

 Biggest array : cg(disk), with    145.6760 MBytes.
 memana : allocated an array of    145.676 Mbytes, for testing purposes.
 memana: allocated     235.346Mbytes, for testing purposes. 
 The job will continue.

 DATASET    2 : space group P4/n m m (#129); Bravais tP (primitive tetrag.)

 getdim_nloc : deduce lmnmax  =  18, lnmax  =   6,
                      lmnmaxso=  18, lnmaxso=   6.
memory: analysis of memory needs
================================================================================
 Values of the parameters that define the memory need for DATASET  2.
     intxc =       0    ionmov =       0      iscf =      -2    lmnmax =       6
     lnmax =       6     mgfft =     192  mpssoang =       3    mqgrid =    9263
     natom =      12  nloc_mem =       1    nspden =       1   nspinor =       1
    nsppol =       1      nsym =      16    n1xccc =    2501    ntypat =       2
    occopt =       1   xclevel =       2
-    mband =         102        mffmem =           1         mkmem =          10
       mpw =       13396          nfft =      248832          nkpt =          57
================================================================================
P This job should need less than                     260.695 Mbytes of memory.
  Rough estimation (10% accuracy) of disk space for files :
_ WF disk file :   1188.423 Mbytes ; DEN or POT disk file :      1.900 Mbytes.
================================================================================

 Biggest array : cg(disk), with    208.4969 MBytes.
 memana : allocated an array of    208.497 Mbytes, for testing purposes.
 memana: allocated     260.695Mbytes, for testing purposes. 
 The job will continue.

 DATASET    3 : space group P4/n m m (#129); Bravais tP (primitive tetrag.)

 getdim_nloc : deduce lmnmax  =  18, lnmax  =   6,
                      lmnmaxso=  18, lnmaxso=   6.
memory: analysis of memory needs
================================================================================
 Values of the parameters that define the memory need for DATASET  3.
     intxc =       0    ionmov =       0      iscf =      -3    lmnmax =       6
     lnmax =       6     mgfft =     192  mpssoang =       3    mqgrid =    9263
     natom =      12  nloc_mem =       1    nspden =       1   nspinor =       1
    nsppol =       1      nsym =      16    n1xccc =    2501    ntypat =       2
    occopt =       1   xclevel =       2
-    mband =         102        mffmem =           1         mkmem =           7
       mpw =       13371          nfft =      248832          nkpt =          42
================================================================================
P This job should need less than                     197.377 Mbytes of memory.
  Rough estimation (10% accuracy) of disk space for files :
_ WF disk file :    874.046 Mbytes ; DEN or POT disk file :      1.900 Mbytes.
================================================================================

 Biggest array : cg(disk), with    145.6760 MBytes.
 memana : allocated an array of    145.676 Mbytes, for testing purposes.
 memana: allocated     197.377Mbytes, for testing purposes. 
 The job will continue.
--------------------------------------------------------------------------------
------------- Echo of variables that govern the present computation ------------
--------------------------------------------------------------------------------
-
- outvars: echo of selected default values                                      
-   iomode0 =  0 , fftalg0 =112 , wfoptalg0 =  0
-
- outvars: echo of global parameters not present in the input file              
-  max_nthreads =    0
-
 -outvars: echo values of preprocessed input variables --------
 
 These variables are accessible in NetCDF format (Cs2TiI6o_OUT.nc)

            acell      7.7624316804E+00  7.7624316804E+00  7.7624316804E+00 Bohr
              amu      1.18710000E+02  7.89600000E+01
           diemac      1.20000000E+01
        dosdeltae1     0.00000000E+00 Hartree
        dosdeltae2     0.00000000E+00 Hartree
        dosdeltae3     1.00000000E-03 Hartree
             ecut      2.25000000E+01 Hartree
-          fftalg         112
           getden1          0
           getden2          1
           getden3          1
           getwfk1          0
           getwfk2          0
           getwfk3          1
           iatsph3       1   12
             iscf1         17
             iscf2         -2
             iscf3         -3
           istwfk2       7    0    0    0    0    0    0    0    0    0
                         4    0    0    0    0    0    0    0    0    0
                         0    0    2    0    0    0    0    0    0    0
                         0    0    0    0    0    0    0    0    0    0
                         9    0    0    0    0    0    0    0    8    0
              ixc     -101130
           jdtset        1    2    3
              kpt1     4.16666667E-02  4.16666667E-02  1.25000000E-01
                       1.25000000E-01  4.16666667E-02  1.25000000E-01
                       2.08333333E-01  4.16666667E-02  1.25000000E-01
                       2.91666667E-01  4.16666667E-02  1.25000000E-01
                       3.75000000E-01  4.16666667E-02  1.25000000E-01
                       4.58333333E-01  4.16666667E-02  1.25000000E-01
                       1.25000000E-01  1.25000000E-01  1.25000000E-01
                       2.08333333E-01  1.25000000E-01  1.25000000E-01
                       2.91666667E-01  1.25000000E-01  1.25000000E-01
                       3.75000000E-01  1.25000000E-01  1.25000000E-01
                       4.58333333E-01  1.25000000E-01  1.25000000E-01
                       2.08333333E-01  2.08333333E-01  1.25000000E-01
                       2.91666667E-01  2.08333333E-01  1.25000000E-01
                       3.75000000E-01  2.08333333E-01  1.25000000E-01
                       4.58333333E-01  2.08333333E-01  1.25000000E-01
                       2.91666667E-01  2.91666667E-01  1.25000000E-01
                       3.75000000E-01  2.91666667E-01  1.25000000E-01
                       4.58333333E-01  2.91666667E-01  1.25000000E-01
                       3.75000000E-01  3.75000000E-01  1.25000000E-01
                       4.58333333E-01  3.75000000E-01  1.25000000E-01
                       4.58333333E-01  4.58333333E-01  1.25000000E-01
                       4.16666667E-02  4.16666667E-02  3.75000000E-01
                       1.25000000E-01  4.16666667E-02  3.75000000E-01
                       2.08333333E-01  4.16666667E-02  3.75000000E-01
                       2.91666667E-01  4.16666667E-02  3.75000000E-01
                       3.75000000E-01  4.16666667E-02  3.75000000E-01
                       4.58333333E-01  4.16666667E-02  3.75000000E-01
                       1.25000000E-01  1.25000000E-01  3.75000000E-01
                       2.08333333E-01  1.25000000E-01  3.75000000E-01
                       2.91666667E-01  1.25000000E-01  3.75000000E-01
                       3.75000000E-01  1.25000000E-01  3.75000000E-01
                       4.58333333E-01  1.25000000E-01  3.75000000E-01
                       2.08333333E-01  2.08333333E-01  3.75000000E-01
                       2.91666667E-01  2.08333333E-01  3.75000000E-01
                       3.75000000E-01  2.08333333E-01  3.75000000E-01
                       4.58333333E-01  2.08333333E-01  3.75000000E-01
                       2.91666667E-01  2.91666667E-01  3.75000000E-01
                       3.75000000E-01  2.91666667E-01  3.75000000E-01
                       4.58333333E-01  2.91666667E-01  3.75000000E-01
                       3.75000000E-01  3.75000000E-01  3.75000000E-01
                       4.58333333E-01  3.75000000E-01  3.75000000E-01
                       4.58333333E-01  4.58333333E-01  3.75000000E-01
              kpt2     5.00000000E-01  5.00000000E-01  0.00000000E+00
                       4.50000000E-01  4.50000000E-01  5.00000000E-02
                       4.00000000E-01  4.00000000E-01  1.00000000E-01
                       3.50000000E-01  3.50000000E-01  1.50000000E-01
                       3.00000000E-01  3.00000000E-01  2.00000000E-01
                       2.50000000E-01  2.50000000E-01  2.50000000E-01
                       2.00000000E-01  2.00000000E-01  3.00000000E-01
                       1.50000000E-01  1.50000000E-01  3.50000000E-01
                       1.00000000E-01  1.00000000E-01  4.00000000E-01
                       5.00000000E-02  5.00000000E-02  4.50000000E-01
                       0.00000000E+00  0.00000000E+00  5.00000000E-01
                       0.00000000E+00  0.00000000E+00  4.58333333E-01
                       0.00000000E+00  0.00000000E+00  4.16666667E-01
                       0.00000000E+00  0.00000000E+00  3.75000000E-01
                       0.00000000E+00  0.00000000E+00  3.33333333E-01
                       0.00000000E+00  0.00000000E+00  2.91666667E-01
                       0.00000000E+00  0.00000000E+00  2.50000000E-01
                       0.00000000E+00  0.00000000E+00  2.08333333E-01
                       0.00000000E+00  0.00000000E+00  1.66666667E-01
                       0.00000000E+00  0.00000000E+00  1.25000000E-01
                       0.00000000E+00  0.00000000E+00  8.33333333E-02
                       0.00000000E+00  0.00000000E+00  4.16666667E-02
                       0.00000000E+00  0.00000000E+00  0.00000000E+00
                       2.77777778E-02  2.77777778E-02  2.77777778E-02
                       5.55555556E-02  5.55555556E-02  5.55555556E-02
                       8.33333333E-02  8.33333333E-02  8.33333333E-02
                       1.11111111E-01  1.11111111E-01  1.11111111E-01
                       1.38888889E-01  1.38888889E-01  1.38888889E-01
                       1.66666667E-01  1.66666667E-01  1.66666667E-01
                       1.94444444E-01  1.94444444E-01  1.94444444E-01
                       2.22222222E-01  2.22222222E-01  2.22222222E-01
                       2.50000000E-01  2.50000000E-01  2.50000000E-01
                       2.77777778E-01  2.77777778E-01  2.77777778E-01
                       3.05555556E-01  3.05555556E-01  3.05555556E-01
                       3.33333333E-01  3.33333333E-01  3.33333333E-01
                       3.61111111E-01  3.61111111E-01  3.61111111E-01
                       3.88888889E-01  3.88888889E-01  3.88888889E-01
                       4.16666667E-01  4.16666667E-01  4.16666667E-01
                       4.44444444E-01  4.44444444E-01  4.44444444E-01
                       4.72222222E-01  4.72222222E-01  4.72222222E-01
                       5.00000000E-01  5.00000000E-01  5.00000000E-01
                       4.37500000E-01  5.00000000E-01  5.00000000E-01
                       3.75000000E-01  5.00000000E-01  5.00000000E-01
                       3.12500000E-01  5.00000000E-01  5.00000000E-01
                       2.50000000E-01  5.00000000E-01  5.00000000E-01
                       1.87500000E-01  5.00000000E-01  5.00000000E-01
                       1.25000000E-01  5.00000000E-01  5.00000000E-01
                       6.25000000E-02  5.00000000E-01  5.00000000E-01
                       0.00000000E+00  5.00000000E-01  5.00000000E-01
                       0.00000000E+00  5.00000000E-01  4.37500000E-01
              kpt3     4.16666667E-02  4.16666667E-02  1.25000000E-01
                       1.25000000E-01  4.16666667E-02  1.25000000E-01
                       2.08333333E-01  4.16666667E-02  1.25000000E-01
                       2.91666667E-01  4.16666667E-02  1.25000000E-01
                       3.75000000E-01  4.16666667E-02  1.25000000E-01
                       4.58333333E-01  4.16666667E-02  1.25000000E-01
                       1.25000000E-01  1.25000000E-01  1.25000000E-01
                       2.08333333E-01  1.25000000E-01  1.25000000E-01
                       2.91666667E-01  1.25000000E-01  1.25000000E-01
                       3.75000000E-01  1.25000000E-01  1.25000000E-01
                       4.58333333E-01  1.25000000E-01  1.25000000E-01
                       2.08333333E-01  2.08333333E-01  1.25000000E-01
                       2.91666667E-01  2.08333333E-01  1.25000000E-01
                       3.75000000E-01  2.08333333E-01  1.25000000E-01
                       4.58333333E-01  2.08333333E-01  1.25000000E-01
                       2.91666667E-01  2.91666667E-01  1.25000000E-01
                       3.75000000E-01  2.91666667E-01  1.25000000E-01
                       4.58333333E-01  2.91666667E-01  1.25000000E-01
                       3.75000000E-01  3.75000000E-01  1.25000000E-01
                       4.58333333E-01  3.75000000E-01  1.25000000E-01
                       4.58333333E-01  4.58333333E-01  1.25000000E-01
                       4.16666667E-02  4.16666667E-02  3.75000000E-01
                       1.25000000E-01  4.16666667E-02  3.75000000E-01
                       2.08333333E-01  4.16666667E-02  3.75000000E-01
                       2.91666667E-01  4.16666667E-02  3.75000000E-01
                       3.75000000E-01  4.16666667E-02  3.75000000E-01
                       4.58333333E-01  4.16666667E-02  3.75000000E-01
                       1.25000000E-01  1.25000000E-01  3.75000000E-01
                       2.08333333E-01  1.25000000E-01  3.75000000E-01
                       2.91666667E-01  1.25000000E-01  3.75000000E-01
                       3.75000000E-01  1.25000000E-01  3.75000000E-01
                       4.58333333E-01  1.25000000E-01  3.75000000E-01
                       2.08333333E-01  2.08333333E-01  3.75000000E-01
                       2.91666667E-01  2.08333333E-01  3.75000000E-01
                       3.75000000E-01  2.08333333E-01  3.75000000E-01
                       4.58333333E-01  2.08333333E-01  3.75000000E-01
                       2.91666667E-01  2.91666667E-01  3.75000000E-01
                       3.75000000E-01  2.91666667E-01  3.75000000E-01
                       4.58333333E-01  2.91666667E-01  3.75000000E-01
                       3.75000000E-01  3.75000000E-01  3.75000000E-01
                       4.58333333E-01  3.75000000E-01  3.75000000E-01
                       4.58333333E-01  4.58333333E-01  3.75000000E-01
                       outvar_i_n : Printing only first  50 k-points.
           kptopt1          1
           kptopt2         -5
           kptopt3          1
         kptrlatt       12    0    0      0   12    0      0    0    4
          kptrlen1     9.31491802E+01
          kptrlen2     3.00000000E+01
          kptrlen3     9.31491802E+01
P           mkmem1          7
P           mkmem2         10
P           mkmem3          7
            natom          12
           natsph3       2
            nband1        102
            nband2        102
            nband3        102
           nbdbuf1          0
           nbdbuf2          2
           nbdbuf3          2
           ndtset           3
            ngfft          36      36     192
             nkpt1         42
             nkpt2         57
             nkpt3         42
            nstep1       1000
            nstep2        300
            nstep3        300
             nsym          16
           ntypat           2
              occ      2.000000  2.000000  2.000000  2.000000  2.000000  2.000000
                       2.000000  2.000000  2.000000  2.000000  2.000000  2.000000
                       2.000000  2.000000  2.000000  2.000000  2.000000  2.000000
                       2.000000  2.000000  2.000000  2.000000  2.000000  2.000000
                       2.000000  2.000000  2.000000  2.000000  2.000000  2.000000
                       2.000000  2.000000  2.000000  2.000000  2.000000  2.000000
                       2.000000  2.000000  2.000000  2.000000  2.000000  2.000000
                       2.000000  2.000000  2.000000  2.000000  2.000000  2.000000
                       2.000000  2.000000  2.000000  2.000000  2.000000  2.000000
                       2.000000  2.000000  2.000000  2.000000  2.000000  2.000000
                       2.000000  2.000000  2.000000  2.000000  2.000000  2.000000
                       2.000000  2.000000  2.000000  2.000000  2.000000  2.000000
                       2.000000  2.000000  2.000000  2.000000  2.000000  2.000000
                       2.000000  2.000000  2.000000  2.000000  2.000000  2.000000
                       2.000000  2.000000  2.000000  2.000000  2.000000  2.000000
                       0.000000  0.000000  0.000000  0.000000  0.000000  0.000000
                       0.000000  0.000000  0.000000  0.000000  0.000000  0.000000
           prtcif           1
           prtdos1          0
           prtdos2          0
           prtdos3          3
            rprim      1.0000000000E+00  0.0000000000E+00  0.0000000000E+00
                       0.0000000000E+00  1.0000000000E+00  0.0000000000E+00
                       0.0000000000E+00  0.0000000000E+00  5.5880443615E+00
           shiftk      5.00000000E-01  5.00000000E-01  5.00000000E-01
          spgroup         129
           symrel      1  0  0   0  1  0   0  0  1      -1  0  0   0 -1  0   0  0 -1
                      -1  0  0   0  1  0   0  0 -1       1  0  0   0 -1  0   0  0  1
                      -1  0  0   0 -1  0   0  0  1       1  0  0   0  1  0   0  0 -1
                       1  0  0   0 -1  0   0  0 -1      -1  0  0   0  1  0   0  0  1
                       0  1  0   1  0  0   0  0  1       0 -1  0  -1  0  0   0  0 -1
                       0 -1  0   1  0  0   0  0 -1       0  1  0  -1  0  0   0  0  1
                       0 -1  0  -1  0  0   0  0  1       0  1  0   1  0  0   0  0 -1
                       0  1  0  -1  0  0   0  0 -1       0 -1  0   1  0  0   0  0  1
            tnons      0.0000000  0.0000000  0.0000000     0.5000000  0.5000000 -0.0000000
                       0.5000000  0.5000000 -0.0000000     0.0000000  0.0000000  0.0000000
                      -0.0000000  0.0000000  0.0000000     0.5000000  0.5000000 -0.0000000
                       0.5000000  0.5000000 -0.0000000    -0.0000000  0.0000000  0.0000000
                       0.5000000  0.5000000  0.0000000     0.0000000 -0.0000000 -0.0000000
                       0.0000000 -0.0000000 -0.0000000     0.5000000  0.5000000  0.0000000
                       0.5000000  0.5000000  0.0000000     0.0000000  0.0000000 -0.0000000
                       0.0000000  0.0000000 -0.0000000     0.5000000  0.5000000  0.0000000
           tolwfr      1.00000000E-20
            typat      1  1  1  1  1  1  2  2  2  2  2  2
           vdw_xc           5
              wtk1       0.01389    0.02778    0.02778    0.02778    0.02778    0.02778
                         0.01389    0.02778    0.02778    0.02778    0.02778    0.01389
                         0.02778    0.02778    0.02778    0.01389    0.02778    0.02778
                         0.01389    0.02778    0.01389    0.01389    0.02778    0.02778
                         0.02778    0.02778    0.02778    0.01389    0.02778    0.02778
                         0.02778    0.02778    0.01389    0.02778    0.02778    0.02778
                         0.01389    0.02778    0.02778    0.01389    0.02778    0.01389
              wtk2       1.00000    1.00000    1.00000    1.00000    1.00000    1.00000
                         1.00000    1.00000    1.00000    1.00000    1.00000    1.00000
                         1.00000    1.00000    1.00000    1.00000    1.00000    1.00000
                         1.00000    1.00000    1.00000    1.00000    1.00000    1.00000
                         1.00000    1.00000    1.00000    1.00000    1.00000    1.00000
                         1.00000    1.00000    1.00000    1.00000    1.00000    1.00000
                         1.00000    1.00000    1.00000    1.00000    1.00000    1.00000
                         1.00000    1.00000    1.00000    1.00000    1.00000    1.00000
                         1.00000    1.00000
              wtk3       0.01389    0.02778    0.02778    0.02778    0.02778    0.02778
                         0.01389    0.02778    0.02778    0.02778    0.02778    0.01389
                         0.02778    0.02778    0.02778    0.01389    0.02778    0.02778
                         0.01389    0.02778    0.01389    0.01389    0.02778    0.02778
                         0.02778    0.02778    0.02778    0.01389    0.02778    0.02778
                         0.02778    0.02778    0.01389    0.02778    0.02778    0.02778
                         0.01389    0.02778    0.02778    0.01389    0.02778    0.01389
                       outvars : Printing only first  50 k-points.
           xangst      2.0538509643E+00  0.0000000000E+00  4.6664605720E+00
                       0.0000000000E+00  2.0538509643E+00  7.4160997457E+00
                       2.0538509643E+00  0.0000000000E+00  1.0102202190E+01
                       0.0000000000E+00  2.0538509643E+00  1.2851818410E+01
                       2.0538509643E+00  0.0000000000E+00  1.5537920855E+01
                       0.0000000000E+00  2.0538509643E+00  1.8287560029E+01
                       0.0000000000E+00  2.0538509643E+00  4.6982289365E+00
                       2.0538509643E+00  0.0000000000E+00  7.3843313812E+00
                       0.0000000000E+00  2.0538509643E+00  1.0133970555E+01
                       2.0538509643E+00  0.0000000000E+00  1.2820050046E+01
                       0.0000000000E+00  2.0538509643E+00  1.5569689219E+01
                       2.0538509643E+00  0.0000000000E+00  1.8255791664E+01
            xcart      3.8812158402E+00  0.0000000000E+00  8.8183324910E+00
                       0.0000000000E+00  3.8812158402E+00  1.4014397494E+01
                       3.8812158402E+00  0.0000000000E+00  1.9090395479E+01
                       0.0000000000E+00  3.8812158402E+00  2.4286417105E+01
                       3.8812158402E+00  0.0000000000E+00  2.9362415090E+01
                       0.0000000000E+00  3.8812158402E+00  3.4558480093E+01
                       0.0000000000E+00  3.8812158402E+00  8.8783659996E+00
                       3.8812158402E+00  0.0000000000E+00  1.3954363985E+01
                       0.0000000000E+00  3.8812158402E+00  1.9150428988E+01
                       3.8812158402E+00  0.0000000000E+00  2.4226383596E+01
                       0.0000000000E+00  3.8812158402E+00  2.9422448599E+01
                       3.8812158402E+00  0.0000000000E+00  3.4498446584E+01
             xred      5.0000000000E-01  0.0000000000E+00  2.0329600000E-01
                       0.0000000000E+00  5.0000000000E-01  3.2308500000E-01
                       5.0000000000E-01  0.0000000000E+00  4.4010600000E-01
                       0.0000000000E+00  5.0000000000E-01  5.5989400000E-01
                       5.0000000000E-01  0.0000000000E+00  6.7691500000E-01
                       0.0000000000E+00  5.0000000000E-01  7.9670400000E-01
                       0.0000000000E+00  5.0000000000E-01  2.0468000000E-01
                       5.0000000000E-01  0.0000000000E+00  3.2170100000E-01
                       0.0000000000E+00  5.0000000000E-01  4.4149000000E-01
                       5.0000000000E-01  0.0000000000E+00  5.5851000000E-01
                       0.0000000000E+00  5.0000000000E-01  6.7829900000E-01
                       5.0000000000E-01  0.0000000000E+00  7.9532000000E-01
            znucl       50.00000   34.00000

================================================================================

 chkinp: Checking input parameters for consistency, jdtset=   1.

 chkinp: Checking input parameters for consistency, jdtset=   2.

 chkinp: Checking input parameters for consistency, jdtset=   3.
 DATA TYPE INFORMATION: 
 REAL:      Data type name: REAL(DP) 
            Kind value:      8
            Precision:      15
            Smallest nonnegligible quantity relative to 1: 0.22204460E-015
            Smallest positive number:                      0.22250739E-307
            Largest representable number:                  0.17976931E+309
 INTEGER:   Data type name: INTEGER(default) 
            Kind value: 4
            Bit size:   32
            Largest representable number: 2147483647
 LOGICAL:   Data type name: LOGICAL 
            Kind value: 4
 CHARACTER: Data type name: CHARACTER             Kind value: 1

  ==== OpenMP parallelism is OFF ====
 
  ==== Using MPI-2 specifications ==== 
  MPI-IO support is ON
  xmpi_tag_ub ................   2147483647
  xmpi_bsize_ch ..............            1
  xmpi_bsize_int .............            4
  xmpi_bsize_sp ..............            4
  xmpi_bsize_dp ..............            8
  xmpi_bsize_spc .............            8
  xmpi_bsize_dpc .............           16
  xmpio_bsize_frm ............            4
  xmpi_address_kind ..........            8
  xmpi_offset_kind ...........            8
  MPI_WTICK ..................    1.0000000000000001E-009

================================================================================
== DATASET  1 ==================================================================
-   mpi_nproc: 6, omp_nthreads: -1 (-1 if OMP is not activated)


--- !COMMENT
src_file: m_xgScalapack.F90
src_line: 236
message: |
    xgScalapack in auto mode
...


 getdim_nloc : deduce lmnmax  =  18, lnmax  =   6,
                      lmnmaxso=  18, lnmaxso=   6.
 Perdew, Burke & Ernzerhof
 J. P. Perdew, K. Burke, and M. Ernzerhof, Phys. Rev. Lett. 77, 3865 (1996)
 J. P. Perdew, K. Burke, and M. Ernzerhof, Phys. Rev. Lett. 78, 1396 (1997)
 Perdew, Burke & Ernzerhof
 J. P. Perdew, K. Burke, and M. Ernzerhof, Phys. Rev. Lett. 77, 3865 (1996)
 J. P. Perdew, K. Burke, and M. Ernzerhof, Phys. Rev. Lett. 78, 1396 (1997)

 Unit cell volume ucvol=  2.6136848E+03 bohr^3
 Angles (23,13,12)=  9.00000000E+01  9.00000000E+01  9.00000000E+01 degrees

 getcut: wavevector=  0.0000  0.0000  0.0000  ngfft=  36  36 192
         ecut(hartree)=     22.500   => boxcut(ratio)=   2.07294
- pspini: atom type   1  psp file is ../../../Psps_for_tests/ATOMICDATA_NC/Sn.psp8
- pspatm: opening atomic psp file    ../../../Psps_for_tests/ATOMICDATA_NC/Sn.psp8
- Sn    ONCVPSP  r_core=  2.27  2.62  1.86
- 50.00000  14.00000    150810                znucl, zion, pspdat
    8   11    2    4       600   0.00000      pspcod,pspxc,lmax,lloc,mmax,r2well

--- !WARNING
src_file: m_pspini.F90
src_line: 1036
message: |
    Pseudopotential file pspxc: 11, not equal to input ixc: -101130.
    These parameters must agree to get the same xc in ABINIT code as in psp construction.
    Action: check psp design or input file.
    Assume experienced user. Execution will continue.
...

    5.99000000000000    6.50000000000000    0.00000000000000   rchrg,fchrg,qchrg
     nproj     2     2     2
     extension_switch     1
  valence charge integrates to:    13.912521222389802     
  pspatm : epsatm=   32.65190642
         --- l  ekb(1:nproj) -->
             0    5.462393    0.682281
             1    4.443814    0.825686
             2   -5.382195   -1.704077
 pspatm: atomic psp has been read  and splines computed

- pspini: atom type   2  psp file is ../../../Psps_for_tests/ATOMICDATA_NC/Se.psp8
- pspatm: opening atomic psp file    ../../../Psps_for_tests/ATOMICDATA_NC/Se.psp8
- Se    ONCVPSP  r_core=  1.82  1.50  1.91
- 34.00000  16.00000    150729                znucl, zion, pspdat
    8   11    2    4       600   0.00000      pspcod,pspxc,lmax,lloc,mmax,r2well

--- !WARNING
src_file: m_pspini.F90
src_line: 1036
message: |
    Pseudopotential file pspxc: 11, not equal to input ixc: -101130.
    These parameters must agree to get the same xc in ABINIT code as in psp construction.
    Action: check psp design or input file.
    Assume experienced user. Execution will continue.
...

    5.99000000000000    5.00000000000000    0.00000000000000   rchrg,fchrg,qchrg
     nproj     2     2     2
     extension_switch     1
  valence charge integrates to:    15.981819523532332     
  pspatm : epsatm=   29.53325930
         --- l  ekb(1:nproj) -->
             0    8.612261    0.939919
             1    6.984962    1.281898
             2   -9.322521   -3.856218
 pspatm: atomic psp has been read  and splines computed

   6.71599790E+04                                ecore*ucvol(ha*bohr**3)
 ==== Info on pseudopotentials ====
  Norm-conserving pseudopotentials
  Number of pseudopotentials ..    2
  Number of types of atoms   ..    2
  Scalar calculation (no spin-orbit term)
  Nonlocal part applied using Legendre polynomials
  Max number of non-local projectors over l and type   2
  Highest angular momentum +1 .......   3
  Max number of (l,n)   components ..   6
  Max number of (l,m,n) components ..   6

 Pseudo-Core Charge Info: 
   Number of radial points for pseudo-core charge .. 2501
   XC core-correction treatment (optnlxccc) ........    1
   Radius for pseudo-core charge for each type ..... 

  - Atom type    1 has pseudo-core radius ..  5.9900
  - Atom type    2 has pseudo-core radius ..  5.9900

 Info on the Q-grid used for form factors in spline form: 
   Number of q-points for radial functions ffspl ..   9263
   Number of q-points for vlspl ...................   9263
   vloc is computed in Reciprocal Space
   model core charge treated in real-space

  XC functional for type 1 is 11
  Pseudo valence available: yes
  XC functional for type 2 is 11
  Pseudo valence available: yes

 wfconv:   102 bands initialized randomly with npw= 13352, for ikpt=     1
 wfconv:   102 bands initialized randomly with npw= 13364, for ikpt=     2
 wfconv:   102 bands initialized randomly with npw= 13335, for ikpt=     3
 wfconv:   102 bands initialized randomly with npw= 13298, for ikpt=     4
 wfconv:   102 bands initialized randomly with npw= 13326, for ikpt=     5
 wfconv:   102 bands initialized randomly with npw= 13331, for ikpt=     6
 wfconv:   102 bands initialized randomly with npw= 13347, for ikpt=     7
_setup2: Arith. and geom. avg. npw (full set) are   13323.931   13323.920
 initro: for itypat=  1, take pseudo charge density from pp file
 initro: for itypat=  2, take pseudo charge density from pp file

================================================================================

 getcut: wavevector=  0.0000  0.0000  0.0000  ngfft=  36  36 192
         ecut(hartree)=     22.500   => boxcut(ratio)=   2.07294

 1/G**2 cut-off applied in the following step : cutoff-mode = CRYSTAL

  --------------------------------------------------------------
  Van der Waals DFT-D2 semi-empirical dispersion potential added
      with following parameters:
      Specie  C6 (J.nm^6.mol^-1)  R0 (Ang)
      ------------------------------------
         Sn           38.71         1.804
         Se           12.64         1.771

      Scaling factor   =   0.75
      Damping parameter=  20.00
      Cut-off radius   = 130.92 bohr

      Number of pairs contributing =   279120
      DFT-D2 energy contribution   =   -1.62623E-01 Ha
  --------------------------------------------------------------


 1/G**2 cut-off applied in the following step : cutoff-mode = CRYSTAL

 1/G**2 cut-off applied in the following step : cutoff-mode = CRYSTAL

--- !WARNING
src_file: m_drivexc.F90
src_line: 707
message: |
    Density went too small (lower than xc_denpos) at 13492 points
    and was set to xc_denpos =   1.00E-14. Lowest was  -0.64E-03.
    Likely due to too low boxcut or too low ecut for pseudopotential core charge.
...


 ITER STEP NUMBER     1
 vtorho: nnsclo_now = 2, note that nnsclo, dbl_nnsclo, istep= 0 0 1
 Total charge density [el/Bohr^3]
      Maximum=    2.1591E+00  at reduced coord.    0.5000    0.9167    0.5521
      Minimum=    1.4675E-03  at reduced coord.    0.5000    0.0000    0.0104
   Integrated=    1.8000E+02
 ETOT  1  -1182.2068326271    -1.182E+03 8.737E-01 1.618E+02
 scprqt: <Vxc>= -3.1382615E-01 hartree

 Simple mixing update:
  residual square of the potential:    141.39764121311742

 1/G**2 cut-off applied in the following step : cutoff-mode = CRYSTAL
 scfcv_core: previous iteration took 04:20 [minutes]

 ITER STEP NUMBER     2
 vtorho: nnsclo_now = 2, note that nnsclo, dbl_nnsclo, istep= 0 0 2
 Total charge density [el/Bohr^3]
      Maximum=    2.2288E+00  at reduced coord.    0.5000    0.0000    0.5417
      Minimum=    6.8088E-06  at reduced coord.    0.3889    0.0000    0.0052
   Integrated=    1.8000E+02
 ETOT  2  -1193.9135489425    -1.171E+01 1.853E-02 2.795E+01
 scprqt: <Vxc>= -3.1908064E-01 hartree

 Pulay update with  1 previous iterations:
 mixing of old trial potential: alpha(m:m-4)=  0.813      0.187
 scfcv_core: previous iteration took 04:19 [minutes]

 ITER STEP NUMBER     3
 vtorho: nnsclo_now = 1, note that nnsclo, dbl_nnsclo, istep= 0 0 3
 Total charge density [el/Bohr^3]
      Maximum=    2.2091E+00  at reduced coord.    0.5556    0.9444    0.7865
      Minimum=    8.8278E-06  at reduced coord.    0.0000    0.0000    0.0000
   Integrated=    1.8000E+02
 ETOT  3  -1193.6526955593     2.609E-01 1.122E-02 9.620E-01
 scprqt: <Vxc>= -3.1694537E-01 hartree

 Pulay update with  2 previous iterations:
 mixing of old trial potential: alpha(m:m-4)=  0.899      0.101     -0.395E-03
 scfcv_core: previous iteration took 02:08 [minutes]

 ITER STEP NUMBER     4
 vtorho: nnsclo_now = 1, note that nnsclo, dbl_nnsclo, istep= 0 0 4
 Total charge density [el/Bohr^3]
      Maximum=    2.2130E+00  at reduced coord.    0.0000    0.5000    0.6615
      Minimum=    7.4839E-06  at reduced coord.    0.0000    0.0000    0.0000
   Integrated=    1.8000E+02
 ETOT  4  -1193.6482046008     4.491E-03 4.389E-03 1.382E-01
 scprqt: <Vxc>= -3.1546507E-01 hartree

 Pulay update with  3 previous iterations:
 mixing of old trial potential: alpha(m:m-4)=  0.764      0.209      0.286E-01 -0.157E-02
 scfcv_core: previous iteration took 02:10 [minutes]

 ITER STEP NUMBER     5
 vtorho: nnsclo_now = 1, note that nnsclo, dbl_nnsclo, istep= 0 0 5
 Total charge density [el/Bohr^3]
      Maximum=    2.2113E+00  at reduced coord.    0.0000    0.5000    0.6615
      Minimum=    8.2087E-06  at reduced coord.    0.0000    0.0000    0.0000
   Integrated=    1.8000E+02
 ETOT  5  -1193.6449806145     3.224E-03 2.615E-03 5.788E-02
 scprqt: <Vxc>= -3.1492770E-01 hartree

 Pulay update with  4 previous iterations:
 mixing of old trial potential: alpha(m:m-4)=  0.748      0.311     -0.613E-01  0.296E-02  0.198E-03
 scfcv_core: previous iteration took 02:10 [minutes]

 ITER STEP NUMBER     6
 vtorho: nnsclo_now = 1, note that nnsclo, dbl_nnsclo, istep= 0 0 6
 Total charge density [el/Bohr^3]
      Maximum=    2.2118E+00  at reduced coord.    0.0000    0.5000    0.6615
      Minimum=    8.2697E-06  at reduced coord.    0.0000    0.0000    0.0000
   Integrated=    1.8000E+02
 ETOT  6  -1193.6432977966     1.683E-03 1.001E-03 6.953E-03
 scprqt: <Vxc>= -3.1390301E-01 hartree

 Pulay update with  5 previous iterations:
 mixing of old trial potential: alpha(m:m-4)=   1.07     -0.336E-01 -0.170E-01 -0.156E-01  0.691E-04
 scfcv_core: previous iteration took 02:10 [minutes]

 ITER STEP NUMBER     7
 vtorho: nnsclo_now = 1, note that nnsclo, dbl_nnsclo, istep= 0 0 7
 Total charge density [el/Bohr^3]
      Maximum=    2.2118E+00  at reduced coord.    0.0000    0.5000    0.6615
      Minimum=    8.5466E-06  at reduced coord.    0.0000    0.0000    0.0000
   Integrated=    1.8000E+02
 ETOT  7  -1193.6426454981     6.523E-04 1.214E-03 3.169E-03
 scprqt: <Vxc>= -3.1289864E-01 hartree

 Pulay update with  6 previous iterations:
 mixing of old trial potential: alpha(m:m-4)=  0.999      0.112     -0.794E-01 -0.327E-01  0.109E-02
 scfcv_core: previous iteration took 02:10 [minutes]

 ITER STEP NUMBER     8
 vtorho: nnsclo_now = 1, note that nnsclo, dbl_nnsclo, istep= 0 0 8
 Total charge density [el/Bohr^3]
      Maximum=    2.2118E+00  at reduced coord.    0.0000    0.5000    0.6615
      Minimum=    8.7752E-06  at reduced coord.    0.0000    0.0000    0.0000
   Integrated=    1.8000E+02
 ETOT  8  -1193.6423424903     3.030E-04 1.177E-03 1.730E-03
 scprqt: <Vxc>= -3.1204542E-01 hartree

 Pulay update with  7 previous iterations:
 mixing of old trial potential: alpha(m:m-4)=   1.34     -0.102     -0.351      0.743E-01  0.330E-01
 scfcv_core: previous iteration took 02:10 [minutes]

 ITER STEP NUMBER     9
 vtorho: nnsclo_now = 1, note that nnsclo, dbl_nnsclo, istep= 0 0 9
 Total charge density [el/Bohr^3]
      Maximum=    2.2118E+00  at reduced coord.    0.0000    0.5000    0.6615
      Minimum=    8.9570E-06  at reduced coord.    0.0000    0.0000    0.0000
   Integrated=    1.8000E+02
 ETOT  9  -1193.6422311958     1.113E-04 1.481E-03 7.658E-04
 scprqt: <Vxc>= -3.1107533E-01 hartree

 Pulay update with  7 previous iterations:
 mixing of old trial potential: alpha(m:m-4)=   1.44     -0.134     -0.327     -0.407E-01  0.455E-01
 scfcv_core: previous iteration took 02:10 [minutes]

 ITER STEP NUMBER    10
 vtorho: nnsclo_now = 1, note that nnsclo, dbl_nnsclo, istep= 0 0 10
 Total charge density [el/Bohr^3]
      Maximum=    2.2118E+00  at reduced coord.    0.0000    0.5000    0.6615
      Minimum=    9.0323E-06  at reduced coord.    0.0000    0.0000    0.0000
   Integrated=    1.8000E+02
 ETOT 10  -1193.6422649866    -3.379E-05 9.035E-04 2.330E-04
 scprqt: <Vxc>= -3.0998014E-01 hartree

 Pulay update with  7 previous iterations:
 mixing of old trial potential: alpha(m:m-4)=   1.34     -0.134     -0.312      0.817E-01  0.325E-01
 scfcv_core: previous iteration took 02:10 [minutes]

 ITER STEP NUMBER    11
 vtorho: nnsclo_now = 1, note that nnsclo, dbl_nnsclo, istep= 0 0 11
 Total charge density [el/Bohr^3]
      Maximum=    2.2118E+00  at reduced coord.    0.0000    0.5000    0.6615
      Minimum=    8.9964E-06  at reduced coord.    0.0000    0.0000    0.0000
   Integrated=    1.8000E+02
 ETOT 11  -1193.6423323590    -6.737E-05 1.005E-03 6.478E-05
 scprqt: <Vxc>= -3.0907377E-01 hartree

 Pulay update with  7 previous iterations:
 mixing of old trial potential: alpha(m:m-4)=   1.43     -0.642E-01 -0.495      0.922E-01  0.594E-01
 scfcv_core: previous iteration took 02:07 [minutes]

 ITER STEP NUMBER    12
 vtorho: nnsclo_now = 1, note that nnsclo, dbl_nnsclo, istep= 0 0 12
 Total charge density [el/Bohr^3]
      Maximum=    2.2118E+00  at reduced coord.    0.0000    0.5000    0.6615
      Minimum=    8.8361E-06  at reduced coord.    0.0000    0.0000    0.0000
   Integrated=    1.8000E+02
 ETOT 12  -1193.6423884085    -5.605E-05 4.129E-04 3.291E-06
 scprqt: <Vxc>= -3.0794302E-01 hartree

 Pulay update with  7 previous iterations:
 mixing of old trial potential: alpha(m:m-4)=   1.19     -0.132     -0.802E-01 -0.618E-02  0.232E-01
 scfcv_core: previous iteration took 02:07 [minutes]

 ITER STEP NUMBER    13
 vtorho: nnsclo_now = 1, note that nnsclo, dbl_nnsclo, istep= 0 0 13
 Total charge density [el/Bohr^3]
      Maximum=    2.2118E+00  at reduced coord.    0.0000    0.5000    0.6615
      Minimum=    8.7835E-06  at reduced coord.    0.0000    0.0000    0.0000
   Integrated=    1.8000E+02
 ETOT 13  -1193.6423930730    -4.664E-06 3.661E-04 2.124E-07
 scprqt: <Vxc>= -3.0767497E-01 hartree

 Pulay update with  7 previous iterations:
 mixing of old trial potential: alpha(m:m-4)=   1.01      0.104     -0.127     -0.274E-01  0.410E-01
 scfcv_core: previous iteration took 02:06 [minutes]

 ITER STEP NUMBER    14
 vtorho: nnsclo_now = 1, note that nnsclo, dbl_nnsclo, istep= 0 0 14
 Total charge density [el/Bohr^3]
      Maximum=    2.2118E+00  at reduced coord.    0.0000    0.5000    0.6615
      Minimum=    8.7739E-06  at reduced coord.    0.0000    0.0000    0.0000
   Integrated=    1.8000E+02
 ETOT 14  -1193.6423932456    -1.726E-07 2.688E-04 1.604E-08
 scprqt: <Vxc>= -3.0762272E-01 hartree

 Pulay update with  7 previous iterations:
 mixing of old trial potential: alpha(m:m-4)=  0.826      0.239     -0.465E-01 -0.282E-01  0.554E-03
 scfcv_core: previous iteration took 02:06 [minutes]

 ITER STEP NUMBER    15
 vtorho: nnsclo_now = 1, note that nnsclo, dbl_nnsclo, istep= 0 0 15
 Total charge density [el/Bohr^3]
      Maximum=    2.2118E+00  at reduced coord.    0.0000    0.5000    0.6615
      Minimum=    8.7718E-06  at reduced coord.    0.0000    0.0000    0.0000
   Integrated=    1.8000E+02
 ETOT 15  -1193.6423932496    -3.981E-09 1.278E-04 2.063E-09
 scprqt: <Vxc>= -3.0761507E-01 hartree

 Pulay update with  7 previous iterations:
 mixing of old trial potential: alpha(m:m-4)=  0.717      0.309     -0.117E-02 -0.328E-01  0.686E-02
 scfcv_core: previous iteration took 02:10 [minutes]

 ITER STEP NUMBER    16
 vtorho: nnsclo_now = 1, note that nnsclo, dbl_nnsclo, istep= 0 0 16
 Total charge density [el/Bohr^3]
      Maximum=    2.2118E+00  at reduced coord.    0.0000    0.5000    0.6615
      Minimum=    8.7713E-06  at reduced coord.    0.0000    0.0000    0.0000
   Integrated=    1.8000E+02
 ETOT 16  -1193.6423932497    -1.187E-10 2.361E-04 1.529E-10
 scprqt: <Vxc>= -3.0761431E-01 hartree

 Pulay update with  7 previous iterations:
 mixing of old trial potential: alpha(m:m-4)=  0.867      0.159      0.496E-02 -0.269E-01 -0.755E-02
 scfcv_core: previous iteration took 02:10 [minutes]

 ITER STEP NUMBER    17
 vtorho: nnsclo_now = 1, note that nnsclo, dbl_nnsclo, istep= 0 0 17
 Total charge density [el/Bohr^3]
      Maximum=    2.2118E+00  at reduced coord.    0.0000    0.5000    0.6615
      Minimum=    8.7711E-06  at reduced coord.    0.0000    0.0000    0.0000
   Integrated=    1.8000E+02
 ETOT 17  -1193.6423932497    -2.956E-11 8.889E-05 1.507E-11
 scprqt: <Vxc>= -3.0761428E-01 hartree

 Pulay update with  7 previous iterations:
 mixing of old trial potential: alpha(m:m-4)=   1.01      0.433E-01 -0.366E-01 -0.149E-01 -0.193E-02
 scfcv_core: previous iteration took 02:09 [minutes]

 ITER STEP NUMBER    18
 vtorho: nnsclo_now = 1, note that nnsclo, dbl_nnsclo, istep= 0 0 18
 Total charge density [el/Bohr^3]
      Maximum=    2.2118E+00  at reduced coord.    0.0000    0.5000    0.6615
      Minimum=    8.7711E-06  at reduced coord.    0.0000    0.0000    0.0000
   Integrated=    1.8000E+02
 ETOT 18  -1193.6423932497     2.046E-11 1.732E-04 4.703E-12
 scprqt: <Vxc>= -3.0761419E-01 hartree

 Pulay update with  7 previous iterations:
 mixing of old trial potential: alpha(m:m-4)=   1.09      0.320E-01 -0.108     -0.219E-01  0.794E-02
 scfcv_core: previous iteration took 02:10 [minutes]

 ITER STEP NUMBER    19
 vtorho: nnsclo_now = 1, note that nnsclo, dbl_nnsclo, istep= 0 0 19
 Total charge density [el/Bohr^3]
      Maximum=    2.2118E+00  at reduced coord.    0.0000    0.5000    0.6615
      Minimum=    8.7711E-06  at reduced coord.    0.0000    0.0000    0.0000
   Integrated=    1.8000E+02
 ETOT 19  -1193.6423932498    -1.346E-10 6.095E-05 5.253E-13
 scprqt: <Vxc>= -3.0761430E-01 hartree

 Pulay update with  7 previous iterations:
 mixing of old trial potential: alpha(m:m-4)=  0.940      0.164     -0.838E-01 -0.229E-01 -0.253E-02
 scfcv_core: previous iteration took 02:10 [minutes]

 ITER STEP NUMBER    20
 vtorho: nnsclo_now = 1, note that nnsclo, dbl_nnsclo, istep= 0 0 20
 Total charge density [el/Bohr^3]
      Maximum=    2.2118E+00  at reduced coord.    0.0000    0.5000    0.6615
      Minimum=    8.7711E-06  at reduced coord.    0.0000    0.0000    0.0000
   Integrated=    1.8000E+02
 ETOT 20  -1193.6423932497     8.095E-11 1.103E-04 8.937E-14
 scprqt: <Vxc>= -3.0761431E-01 hartree

 Pulay update with  7 previous iterations:
 mixing of old trial potential: alpha(m:m-4)=  0.979      0.140     -0.115     -0.129E-01  0.715E-02
 scfcv_core: previous iteration took 02:10 [minutes]

 ITER STEP NUMBER    21
 vtorho: nnsclo_now = 1, note that nnsclo, dbl_nnsclo, istep= 0 0 21
 Total charge density [el/Bohr^3]
      Maximum=    2.2118E+00  at reduced coord.    0.0000    0.5000    0.6615
      Minimum=    8.7711E-06  at reduced coord.    0.0000    0.0000    0.0000
   Integrated=    1.8000E+02
 ETOT 21  -1193.6423932498    -5.548E-11 4.412E-05 1.641E-14
 scprqt: <Vxc>= -3.0761433E-01 hartree

 Pulay update with  7 previous iterations:
 mixing of old trial potential: alpha(m:m-4)=   1.08     -0.387E-01 -0.388E-01 -0.717E-02  0.586E-02
 scfcv_core: previous iteration took 02:10 [minutes]

 ITER STEP NUMBER    22
 vtorho: nnsclo_now = 1, note that nnsclo, dbl_nnsclo, istep= 0 0 22
 Total charge density [el/Bohr^3]
      Maximum=    2.2118E+00  at reduced coord.    0.0000    0.5000    0.6615
      Minimum=    8.7711E-06  at reduced coord.    0.0000    0.0000    0.0000
   Integrated=    1.8000E+02
 ETOT 22  -1193.6423932497     1.423E-10 6.455E-05 5.173E-15
 scprqt: <Vxc>= -3.0761433E-01 hartree

 Pulay update with  7 previous iterations:
 mixing of old trial potential: alpha(m:m-4)=  0.899      0.277     -0.160     -0.291E-01  0.929E-02
 scfcv_core: previous iteration took 02:10 [minutes]

 ITER STEP NUMBER    23
 vtorho: nnsclo_now = 1, note that nnsclo, dbl_nnsclo, istep= 0 0 23
 Total charge density [el/Bohr^3]
      Maximum=    2.2118E+00  at reduced coord.    0.0000    0.5000    0.6615
      Minimum=    8.7711E-06  at reduced coord.    0.0000    0.0000    0.0000
   Integrated=    1.8000E+02
 ETOT 23  -1193.6423932497    -8.799E-11 4.120E-05 1.935E-15
 scprqt: <Vxc>= -3.0761434E-01 hartree

 Pulay update with  7 previous iterations:
 mixing of old trial potential: alpha(m:m-4)=   1.17      0.200E-01 -0.160     -0.311E-01  0.683E-02
 scfcv_core: previous iteration took 01:59 [minutes]

 ITER STEP NUMBER    24
 vtorho: nnsclo_now = 1, note that nnsclo, dbl_nnsclo, istep= 0 0 24
 Total charge density [el/Bohr^3]
      Maximum=    2.2118E+00  at reduced coord.    0.0000    0.5000    0.6615
      Minimum=    8.7711E-06  at reduced coord.    0.0000    0.0000    0.0000
   Integrated=    1.8000E+02
 ETOT 24  -1193.6423932497     4.547E-13 5.899E-05 4.708E-16
 scprqt: <Vxc>= -3.0761434E-01 hartree

 Pulay update with  7 previous iterations:
 mixing of old trial potential: alpha(m:m-4)=   1.63     -0.543     -0.116     -0.159E-02  0.177E-01
 scfcv_core: previous iteration took 01:42 [minutes]

 ITER STEP NUMBER    25
 vtorho: nnsclo_now = 1, note that nnsclo, dbl_nnsclo, istep= 0 0 25
 Total charge density [el/Bohr^3]
      Maximum=    2.2118E+00  at reduced coord.    0.0000    0.5000    0.6615
      Minimum=    8.7711E-06  at reduced coord.    0.0000    0.0000    0.0000
   Integrated=    1.8000E+02
 ETOT 25  -1193.6423932497     9.777E-12 3.951E-05 8.139E-17
 scprqt: <Vxc>= -3.0761434E-01 hartree

 Pulay update with  7 previous iterations:
 mixing of old trial potential: alpha(m:m-4)=   1.19      0.844E-01 -0.300     -0.273E-01  0.460E-01
 scfcv_core: previous iteration took 01:10 [minutes]

 ITER STEP NUMBER    26
 vtorho: nnsclo_now = 1, note that nnsclo, dbl_nnsclo, istep= 0 0 26
 Total charge density [el/Bohr^3]
      Maximum=    2.2118E+00  at reduced coord.    0.0000    0.5000    0.6615
      Minimum=    8.7711E-06  at reduced coord.    0.0000    0.0000    0.0000
   Integrated=    1.8000E+02
 ETOT 26  -1193.6423932498    -3.865E-11 5.534E-05 3.750E-18
 scprqt: <Vxc>= -3.0761434E-01 hartree

 Pulay update with  7 previous iterations:
 mixing of old trial potential: alpha(m:m-4)=   1.03      0.616E-01 -0.857E-01  0.213E-03 -0.109E-01
 scfcv_core: previous iteration took 01:00 [minutes]

 ITER STEP NUMBER    27
 vtorho: nnsclo_now = 1, note that nnsclo, dbl_nnsclo, istep= 0 0 27
 Total charge density [el/Bohr^3]
      Maximum=    2.2118E+00  at reduced coord.    0.0000    0.5000    0.6615
      Minimum=    8.7711E-06  at reduced coord.    0.0000    0.0000    0.0000
   Integrated=    1.8000E+02
 ETOT 27  -1193.6423932498    -6.344E-11 3.638E-05 5.038E-19
 scprqt: <Vxc>= -3.0761434E-01 hartree

 Pulay update with  7 previous iterations:
 mixing of old trial potential: alpha(m:m-4)=   1.03      0.170E-01 -0.837E-01  0.328E-01 -0.886E-04
 scfcv_core: previous iteration took 35.28 [s]

 ITER STEP NUMBER    28
 vtorho: nnsclo_now = 1, note that nnsclo, dbl_nnsclo, istep= 0 0 28
 Total charge density [el/Bohr^3]
      Maximum=    2.2118E+00  at reduced coord.    0.0000    0.5000    0.6615
      Minimum=    8.7711E-06  at reduced coord.    0.0000    0.0000    0.0000
   Integrated=    1.8000E+02
 ETOT 28  -1193.6423932498     6.594E-11 4.996E-05 2.967E-19
 scprqt: <Vxc>= -3.0761434E-01 hartree

 Pulay update with  7 previous iterations:
 mixing of old trial potential: alpha(m:m-4)=   1.24     -0.169     -0.407E-01 -0.392E-01  0.120E-01
 scfcv_core: previous iteration took 29.67 [s]

 ITER STEP NUMBER    29
 vtorho: nnsclo_now = 1, note that nnsclo, dbl_nnsclo, istep= 0 0 29
 Total charge density [el/Bohr^3]
      Maximum=    2.2118E+00  at reduced coord.    0.0000    0.5000    0.6615
      Minimum=    8.7711E-06  at reduced coord.    0.0000    0.0000    0.0000
   Integrated=    1.8000E+02
 ETOT 29  -1193.6423932498    -3.092E-11 3.240E-05 2.970E-20
 scprqt: <Vxc>= -3.0761434E-01 hartree

 Pulay update with  7 previous iterations:
 mixing of old trial potential: alpha(m:m-4)=  0.781      0.323     -0.870E-01  0.366E-02 -0.283E-01
 scfcv_core: previous iteration took 31.91 [s]

 ITER STEP NUMBER    30
 vtorho: nnsclo_now = 1, note that nnsclo, dbl_nnsclo, istep= 0 0 30
 Total charge density [el/Bohr^3]
      Maximum=    2.2118E+00  at reduced coord.    0.0000    0.5000    0.6615
      Minimum=    8.7711E-06  at reduced coord.    0.0000    0.0000    0.0000
   Integrated=    1.8000E+02
 ETOT 30  -1193.6423932498     3.388E-11 4.357E-05 8.275E-21
 scprqt: <Vxc>= -3.0761434E-01 hartree

 Pulay update with  7 previous iterations:
 mixing of old trial potential: alpha(m:m-4)=   1.75     -0.780      0.464E-01 -0.278E-01  0.133E-01
 scfcv_core: previous iteration took 29.25 [s]

 ITER STEP NUMBER    31
 vtorho: nnsclo_now = 1, note that nnsclo, dbl_nnsclo, istep= 0 0 31
 Total charge density [el/Bohr^3]
      Maximum=    2.2118E+00  at reduced coord.    0.0000    0.5000    0.6615
      Minimum=    8.7711E-06  at reduced coord.    0.0000    0.0000    0.0000
   Integrated=    1.8000E+02
 ETOT 31  -1193.6423932498     4.547E-12 3.262E-05 7.915E-22
 scprqt: <Vxc>= -3.0761434E-01 hartree

 Pulay update with  7 previous iterations:
 mixing of old trial potential: alpha(m:m-4)=   1.25     -0.313      0.877E-01 -0.101E-01 -0.175E-01
 scfcv_core: previous iteration took 28.86 [s]

 ITER STEP NUMBER    32
 vtorho: nnsclo_now = 1, note that nnsclo, dbl_nnsclo, istep= 0 0 32
 Total charge density [el/Bohr^3]
      Maximum=    2.2118E+00  at reduced coord.    0.0000    0.5000    0.6615
      Minimum=    8.7711E-06  at reduced coord.    0.0000    0.0000    0.0000
   Integrated=    1.8000E+02
 ETOT 32  -1193.6423932497     1.660E-11 3.689E-05 3.126E-23
 scprqt: <Vxc>= -3.0761434E-01 hartree

 Pulay update with  7 previous iterations:
 mixing of old trial potential: alpha(m:m-4)=   1.09     -0.366E-01 -0.929E-01  0.344E-01  0.557E-02
 scfcv_core: previous iteration took 28.74 [s]

 ITER STEP NUMBER    33
 vtorho: nnsclo_now = 1, note that nnsclo, dbl_nnsclo, istep= 0 0 33
 Total charge density [el/Bohr^3]
      Maximum=    2.2118E+00  at reduced coord.    0.0000    0.5000    0.6615
      Minimum=    8.7711E-06  at reduced coord.    0.0000    0.0000    0.0000
   Integrated=    1.8000E+02
 ETOT 33  -1193.6423932497     3.411E-12 3.157E-05 4.952E-24
 scprqt: <Vxc>= -3.0761434E-01 hartree

 Pulay update with  7 previous iterations:
 mixing of old trial potential: alpha(m:m-4)=   1.09     -0.591E-01 -0.442E-01  0.312E-01 -0.124E-01
 scfcv_core: previous iteration took 28.53 [s]

 ITER STEP NUMBER    34
 vtorho: nnsclo_now = 1, note that nnsclo, dbl_nnsclo, istep= 0 0 34
 Total charge density [el/Bohr^3]
      Maximum=    2.2118E+00  at reduced coord.    0.0000    0.5000    0.6615
      Minimum=    8.7711E-06  at reduced coord.    0.0000    0.0000    0.0000
   Integrated=    1.8000E+02
 ETOT 34  -1193.6423932497     3.411E-12 3.045E-05 6.455E-25
 scprqt: <Vxc>= -3.0761434E-01 hartree

 Pulay update with  7 previous iterations:
 mixing of old trial potential: alpha(m:m-4)=   1.11     -0.399E-01 -0.622E-01 -0.152E-01  0.520E-02
 scfcv_core: previous iteration took 28.42 [s]

 ITER STEP NUMBER    35
 vtorho: nnsclo_now = 1, note that nnsclo, dbl_nnsclo, istep= 0 0 35
 Total charge density [el/Bohr^3]
      Maximum=    2.2118E+00  at reduced coord.    0.0000    0.5000    0.6615
      Minimum=    8.7711E-06  at reduced coord.    0.0000    0.0000    0.0000
   Integrated=    1.8000E+02
 ETOT 35  -1193.6423932497    -3.183E-12 2.940E-05 1.540E-25
 scprqt: <Vxc>= -3.0761434E-01 hartree

 Pulay update with  7 previous iterations:
 mixing of old trial potential: alpha(m:m-4)=   1.00      0.677E-01 -0.718E-01  0.641E-02 -0.576E-02
 scfcv_core: previous iteration took 28.26 [s]

 ITER STEP NUMBER    36
 vtorho: nnsclo_now = 1, note that nnsclo, dbl_nnsclo, istep= 0 0 36
 Total charge density [el/Bohr^3]
      Maximum=    2.2118E+00  at reduced coord.    0.0000    0.5000    0.6615
      Minimum=    8.7711E-06  at reduced coord.    0.0000    0.0000    0.0000
   Integrated=    1.8000E+02
 ETOT 36  -1193.6423932497     0.000E+00 2.716E-05 2.692E-26
 scprqt: <Vxc>= -3.0761434E-01 hartree

 Pulay update with  7 previous iterations:
 mixing of old trial potential: alpha(m:m-4)=  0.786      0.273     -0.347E-01 -0.287E-01  0.764E-02
 scfcv_core: previous iteration took 28.10 [s]

 ITER STEP NUMBER    37
 vtorho: nnsclo_now = 1, note that nnsclo, dbl_nnsclo, istep= 0 0 37
 Total charge density [el/Bohr^3]
      Maximum=    2.2118E+00  at reduced coord.    0.0000    0.5000    0.6615
      Minimum=    8.7711E-06  at reduced coord.    0.0000    0.0000    0.0000
   Integrated=    1.8000E+02
 ETOT 37  -1193.6423932497     2.274E-13 2.642E-05 1.796E-26
 scprqt: <Vxc>= -3.0761434E-01 hartree

 Pulay update with  7 previous iterations:
 mixing of old trial potential: alpha(m:m-4)=  0.635      0.416     -0.454E-01  0.514E-02 -0.155E-01
 scfcv_core: previous iteration took 27.93 [s]

 ITER STEP NUMBER    38
 vtorho: nnsclo_now = 1, note that nnsclo, dbl_nnsclo, istep= 0 0 38
 Total charge density [el/Bohr^3]
      Maximum=    2.2118E+00  at reduced coord.    0.0000    0.5000    0.6615
      Minimum=    8.7711E-06  at reduced coord.    0.0000    0.0000    0.0000
   Integrated=    1.8000E+02
 ETOT 38  -1193.6423932497    -2.274E-13 2.396E-05 2.764E-26
 scprqt: <Vxc>= -3.0761434E-01 hartree

 Pulay update with  7 previous iterations:
 mixing of old trial potential: alpha(m:m-4)=  0.443      0.315      0.227     -0.240E-01  0.518E-01
 scfcv_core: previous iteration took 27.79 [s]

 ITER STEP NUMBER    39
 vtorho: nnsclo_now = 1, note that nnsclo, dbl_nnsclo, istep= 0 0 39
 Total charge density [el/Bohr^3]
      Maximum=    2.2118E+00  at reduced coord.    0.0000    0.5000    0.6615
      Minimum=    8.7711E-06  at reduced coord.    0.0000    0.0000    0.0000
   Integrated=    1.8000E+02
 ETOT 39  -1193.6423932497     9.095E-13 2.301E-05 3.238E-26
 scprqt: <Vxc>= -3.0761434E-01 hartree

 Pulay update with  7 previous iterations:
 mixing of old trial potential: alpha(m:m-4)= -0.103      0.462      0.363      0.258     -0.920E-02
 scfcv_core: previous iteration took 27.65 [s]

 ITER STEP NUMBER    40
 vtorho: nnsclo_now = 1, note that nnsclo, dbl_nnsclo, istep= 0 0 40
 Total charge density [el/Bohr^3]
      Maximum=    2.2118E+00  at reduced coord.    0.0000    0.5000    0.6615
      Minimum=    8.7711E-06  at reduced coord.    0.0000    0.0000    0.0000
   Integrated=    1.8000E+02
 ETOT 40  -1193.6423932497     2.274E-13 2.055E-05 6.364E-26
 scprqt: <Vxc>= -3.0761434E-01 hartree

 Pulay update with  7 previous iterations:
 mixing of old trial potential: alpha(m:m-4)= -0.645      0.452      0.703      0.304      0.236
 scfcv_core: previous iteration took 27.57 [s]

 ITER STEP NUMBER    41
 vtorho: nnsclo_now = 1, note that nnsclo, dbl_nnsclo, istep= 0 0 41
 Total charge density [el/Bohr^3]
      Maximum=    2.2118E+00  at reduced coord.    0.0000    0.5000    0.6615
      Minimum=    8.7711E-06  at reduced coord.    0.0000    0.0000    0.0000
   Integrated=    1.8000E+02
 ETOT 41  -1193.6423932497     6.821E-13 1.950E-05 1.176E-25
 scprqt: <Vxc>= -3.0761434E-01 hartree

 Pulay update with  7 previous iterations:
 mixing of old trial potential: alpha(m:m-4)= -0.367     -0.109      0.423      0.606      0.294
 scfcv_core: previous iteration took 27.54 [s]

 ITER STEP NUMBER    42
 vtorho: nnsclo_now = 1, note that nnsclo, dbl_nnsclo, istep= 0 0 42
 Total charge density [el/Bohr^3]
      Maximum=    2.2118E+00  at reduced coord.    0.0000    0.5000    0.6615
      Minimum=    8.7711E-06  at reduced coord.    0.0000    0.0000    0.0000
   Integrated=    1.8000E+02
 ETOT 42  -1193.6423932497    -1.137E-12 1.720E-05 1.730E-25
 scprqt: <Vxc>= -3.0761434E-01 hartree

 Pulay update with  7 previous iterations:
 mixing of old trial potential: alpha(m:m-4)= -0.300     -0.444E-01 -0.247E-01  0.373      0.677
 scfcv_core: previous iteration took 27.43 [s]

 ITER STEP NUMBER    43
 vtorho: nnsclo_now = 1, note that nnsclo, dbl_nnsclo, istep= 0 0 43
 Total charge density [el/Bohr^3]
      Maximum=    2.2118E+00  at reduced coord.    0.0000    0.5000    0.6615
      Minimum=    8.7711E-06  at reduced coord.    0.0000    0.0000    0.0000
   Integrated=    1.8000E+02
 ETOT 43  -1193.6423932497     2.274E-13 1.617E-05 2.199E-25
 scprqt: <Vxc>= -3.0761434E-01 hartree

 Pulay update with  7 previous iterations:
 mixing of old trial potential: alpha(m:m-4)= -0.157     -0.133     -0.376E-01 -0.255E-01  0.366
 scfcv_core: previous iteration took 27.27 [s]

 ITER STEP NUMBER    44
 vtorho: nnsclo_now = 1, note that nnsclo, dbl_nnsclo, istep= 0 0 44
 Total charge density [el/Bohr^3]
      Maximum=    2.2118E+00  at reduced coord.    0.0000    0.5000    0.6615
      Minimum=    8.7711E-06  at reduced coord.    0.0000    0.0000    0.0000
   Integrated=    1.8000E+02
 ETOT 44  -1193.6423932497    -4.547E-13 1.412E-05 2.756E-25
 scprqt: <Vxc>= -3.0761434E-01 hartree

 Pulay update with  7 previous iterations:
 mixing of old trial potential: alpha(m:m-4)= -0.191     -0.100     -0.133      0.130      0.286E-01
 scfcv_core: previous iteration took 27.14 [s]

 ITER STEP NUMBER    45
 vtorho: nnsclo_now = 1, note that nnsclo, dbl_nnsclo, istep= 0 0 45
 Total charge density [el/Bohr^3]
      Maximum=    2.2118E+00  at reduced coord.    0.0000    0.5000    0.6615
      Minimum=    8.7711E-06  at reduced coord.    0.0000    0.0000    0.0000
   Integrated=    1.8000E+02
 ETOT 45  -1193.6423932497     9.095E-13 1.317E-05 3.317E-25
 scprqt: <Vxc>= -3.0761434E-01 hartree

 Pulay update with  7 previous iterations:
 mixing of old trial potential: alpha(m:m-4)= -0.302     -0.195      0.905E-01  0.566E-01  0.160
 scfcv_core: previous iteration took 27.10 [s]

 ITER STEP NUMBER    46
 vtorho: nnsclo_now = 1, note that nnsclo, dbl_nnsclo, istep= 0 0 46
 Total charge density [el/Bohr^3]
      Maximum=    2.2118E+00  at reduced coord.    0.0000    0.5000    0.6615
      Minimum=    8.7711E-06  at reduced coord.    0.0000    0.0000    0.0000
   Integrated=    1.8000E+02
 ETOT 46  -1193.6423932497    -6.821E-13 1.141E-05 3.789E-25
 scprqt: <Vxc>= -3.0761434E-01 hartree

 Pulay update with  7 previous iterations:
 mixing of old trial potential: alpha(m:m-4)= -0.224     -0.359     -0.222      0.235      0.298
 scfcv_core: previous iteration took 27.09 [s]

 ITER STEP NUMBER    47
 vtorho: nnsclo_now = 1, note that nnsclo, dbl_nnsclo, istep= 0 0 47
 Total charge density [el/Bohr^3]
      Maximum=    2.2118E+00  at reduced coord.    0.0000    0.5000    0.6615
      Minimum=    8.7711E-06  at reduced coord.    0.0000    0.0000    0.0000
   Integrated=    1.8000E+02
 ETOT 47  -1193.6423932497     2.046E-12 1.058E-05 4.362E-25
 scprqt: <Vxc>= -3.0761434E-01 hartree

 Pulay update with  7 previous iterations:
 mixing of old trial potential: alpha(m:m-4)=  0.205     -0.511     -0.617     -0.165      0.358
 scfcv_core: previous iteration took 27.01 [s]

 ITER STEP NUMBER    48
 vtorho: nnsclo_now = 1, note that nnsclo, dbl_nnsclo, istep= 0 0 48
 Total charge density [el/Bohr^3]
      Maximum=    2.2118E+00  at reduced coord.    0.0000    0.5000    0.6615
      Minimum=    8.7711E-06  at reduced coord.    0.0000    0.0000    0.0000
   Integrated=    1.8000E+02
 ETOT 48  -1193.6423932497    -4.547E-13 9.113E-06 5.648E-25
 scprqt: <Vxc>= -3.0761434E-01 hartree

 Pulay update with  7 previous iterations:
 mixing of old trial potential: alpha(m:m-4)=  0.215     -0.327     -0.620     -0.840      0.267E-01
 scfcv_core: previous iteration took 26.94 [s]

 ITER STEP NUMBER    49
 vtorho: nnsclo_now = 1, note that nnsclo, dbl_nnsclo, istep= 0 0 49
 Total charge density [el/Bohr^3]
      Maximum=    2.2118E+00  at reduced coord.    0.0000    0.5000    0.6615
      Minimum=    8.7711E-06  at reduced coord.    0.0000    0.0000    0.0000
   Integrated=    1.8000E+02
 ETOT 49  -1193.6423932497     4.547E-13 8.405E-06 6.110E-25
 scprqt: <Vxc>= -3.0761434E-01 hartree

 Pulay update with  7 previous iterations:
 mixing of old trial potential: alpha(m:m-4)=  0.511E-01  0.657E-01 -0.672E-01 -0.920      -1.62
 scfcv_core: previous iteration took 26.92 [s]

 ITER STEP NUMBER    50
 vtorho: nnsclo_now = 1, note that nnsclo, dbl_nnsclo, istep= 0 0 50
 Total charge density [el/Bohr^3]
      Maximum=    2.2118E+00  at reduced coord.    0.0000    0.5000    0.6615
      Minimum=    8.7711E-06  at reduced coord.    0.0000    0.0000    0.0000
   Integrated=    1.8000E+02
 ETOT 50  -1193.6423932497    -9.095E-13 7.207E-06 6.657E-25
 scprqt: <Vxc>= -3.0761434E-01 hartree

 Pulay update with  7 previous iterations:
 mixing of old trial potential: alpha(m:m-4)= -0.334E-01 -0.603     -0.159      0.595E-01 -0.606
 scfcv_core: previous iteration took 26.83 [s]

 ITER STEP NUMBER    51
 vtorho: nnsclo_now = 1, note that nnsclo, dbl_nnsclo, istep= 0 0 51
 Total charge density [el/Bohr^3]
      Maximum=    2.2118E+00  at reduced coord.    0.0000    0.5000    0.6615
      Minimum=    8.7711E-06  at reduced coord.    0.0000    0.0000    0.0000
   Integrated=    1.8000E+02
 ETOT 51  -1193.6423932497    -2.274E-12 6.621E-06 6.245E-25
 scprqt: <Vxc>= -3.0761434E-01 hartree

 Pulay update with  7 previous iterations:
 mixing of old trial potential: alpha(m:m-4)=  0.219     -0.240      -1.12     -0.482     -0.305E-01
 scfcv_core: previous iteration took 26.78 [s]

 ITER STEP NUMBER    52
 vtorho: nnsclo_now = 1, note that nnsclo, dbl_nnsclo, istep= 0 0 52
 Total charge density [el/Bohr^3]
      Maximum=    2.2118E+00  at reduced coord.    0.0000    0.5000    0.6615
      Minimum=    8.7711E-06  at reduced coord.    0.0000    0.0000    0.0000
   Integrated=    1.8000E+02
 ETOT 52  -1193.6423932497     9.095E-13 5.657E-06 6.577E-25
 scprqt: <Vxc>= -3.0761434E-01 hartree

 Pulay update with  7 previous iterations:
 mixing of old trial potential: alpha(m:m-4)= -0.426      0.787E-01 -0.804      -1.23     -0.132
 scfcv_core: previous iteration took 26.72 [s]

 ITER STEP NUMBER    53
 vtorho: nnsclo_now = 1, note that nnsclo, dbl_nnsclo, istep= 0 0 53
 Total charge density [el/Bohr^3]
      Maximum=    2.2118E+00  at reduced coord.    0.0000    0.5000    0.6615
      Minimum=    8.7711E-06  at reduced coord.    0.0000    0.0000    0.0000
   Integrated=    1.8000E+02
 ETOT 53  -1193.6423932497     1.137E-12 5.181E-06 6.802E-25
 scprqt: <Vxc>= -3.0761434E-01 hartree

 Pulay update with  7 previous iterations:
 mixing of old trial potential: alpha(m:m-4)= -0.226     -0.217      0.164     -0.200      -1.95
 scfcv_core: previous iteration took 26.61 [s]

 ITER STEP NUMBER    54
 vtorho: nnsclo_now = 1, note that nnsclo, dbl_nnsclo, istep= 0 0 54
 Total charge density [el/Bohr^3]
      Maximum=    2.2118E+00  at reduced coord.    0.0000    0.5000    0.6615
      Minimum=    8.7711E-06  at reduced coord.    0.0000    0.0000    0.0000
   Integrated=    1.8000E+02
 ETOT 54  -1193.6423932497     1.819E-12 4.415E-06 6.867E-25
 scprqt: <Vxc>= -3.0761434E-01 hartree

 Pulay update with  7 previous iterations:
 mixing of old trial potential: alpha(m:m-4)=  0.235     -0.366     -0.287      0.253      0.824E-01
 scfcv_core: previous iteration took 26.53 [s]

 ITER STEP NUMBER    55
 vtorho: nnsclo_now = 1, note that nnsclo, dbl_nnsclo, istep= 0 0 55
 Total charge density [el/Bohr^3]
      Maximum=    2.2118E+00  at reduced coord.    0.0000    0.5000    0.6615
      Minimum=    8.7711E-06  at reduced coord.    0.0000    0.0000    0.0000
   Integrated=    1.8000E+02
 ETOT 55  -1193.6423932497    -1.137E-12 4.034E-06 5.399E-25
 scprqt: <Vxc>= -3.0761434E-01 hartree

 Pulay update with  7 previous iterations:
 mixing of old trial potential: alpha(m:m-4)=   1.20     -0.601     -0.234     -0.456      0.295
 scfcv_core: previous iteration took 26.51 [s]

 ITER STEP NUMBER    56
 vtorho: nnsclo_now = 1, note that nnsclo, dbl_nnsclo, istep= 0 0 56
 Total charge density [el/Bohr^3]
      Maximum=    2.2118E+00  at reduced coord.    0.0000    0.5000    0.6615
      Minimum=    8.7711E-06  at reduced coord.    0.0000    0.0000    0.0000
   Integrated=    1.8000E+02
 ETOT 56  -1193.6423932497    -1.819E-12 3.430E-06 3.269E-24
 scprqt: <Vxc>= -3.0761434E-01 hartree

 Pulay update with  7 previous iterations:
 mixing of old trial potential: alpha(m:m-4)=  0.499      0.527      0.445      -1.68      0.393
 scfcv_core: previous iteration took 26.49 [s]

 ITER STEP NUMBER    57
 vtorho: nnsclo_now = 1, note that nnsclo, dbl_nnsclo, istep= 0 0 57
 Total charge density [el/Bohr^3]
      Maximum=    2.2118E+00  at reduced coord.    0.0000    0.5000    0.6615
      Minimum=    8.7711E-06  at reduced coord.    0.0000    0.0000    0.0000
   Integrated=    1.8000E+02
 ETOT 57  -1193.6423932497    -9.095E-13 3.128E-06 1.237E-24
 scprqt: <Vxc>= -3.0761434E-01 hartree

 Pulay update with  7 previous iterations:
 mixing of old trial potential: alpha(m:m-4)=   1.51     -0.660      0.481      0.508      -1.42
 scfcv_core: previous iteration took 26.42 [s]

 ITER STEP NUMBER    58
 vtorho: nnsclo_now = 1, note that nnsclo, dbl_nnsclo, istep= 0 0 58
 Total charge density [el/Bohr^3]
      Maximum=    2.2118E+00  at reduced coord.    0.0000    0.5000    0.6615
      Minimum=    8.7711E-06  at reduced coord.    0.0000    0.0000    0.0000
   Integrated=    1.8000E+02
 ETOT 58  -1193.6423932497     9.095E-13 3.266E-06 7.929E-25
 scprqt: <Vxc>= -3.0761434E-01 hartree

 Pulay update with  7 previous iterations:
 mixing of old trial potential: alpha(m:m-4)=   1.29     -0.163     -0.483      0.799E-01  0.142
 scfcv_core: previous iteration took 26.43 [s]

 ITER STEP NUMBER    59
 vtorho: nnsclo_now = 1, note that nnsclo, dbl_nnsclo, istep= 0 0 59
 Total charge density [el/Bohr^3]
      Maximum=    2.2118E+00  at reduced coord.    0.0000    0.5000    0.6615
      Minimum=    8.7711E-06  at reduced coord.    0.0000    0.0000    0.0000
   Integrated=    1.8000E+02
 ETOT 59  -1193.6423932497     1.137E-12 3.073E-06 6.108E-26
 scprqt: <Vxc>= -3.0761434E-01 hartree

 Pulay update with  7 previous iterations:
 mixing of old trial potential: alpha(m:m-4)=  0.945      0.214     -0.126     -0.282E-01  0.585E-02
 scfcv_core: previous iteration took 26.43 [s]

 ITER STEP NUMBER    60
 vtorho: nnsclo_now = 1, note that nnsclo, dbl_nnsclo, istep= 0 0 60
 Total charge density [el/Bohr^3]
      Maximum=    2.2118E+00  at reduced coord.    0.0000    0.5000    0.6615
      Minimum=    8.7711E-06  at reduced coord.    0.0000    0.0000    0.0000
   Integrated=    1.8000E+02
 ETOT 60  -1193.6423932497     1.364E-12 3.429E-06 3.729E-26
 scprqt: <Vxc>= -3.0761434E-01 hartree

 Pulay update with  7 previous iterations:
 mixing of old trial potential: alpha(m:m-4)=  0.682      0.322      0.668E-01 -0.487E-01  0.420E-02
 scfcv_core: previous iteration took 26.40 [s]

 ITER STEP NUMBER    61
 vtorho: nnsclo_now = 1, note that nnsclo, dbl_nnsclo, istep= 0 0 61
 Total charge density [el/Bohr^3]
      Maximum=    2.2118E+00  at reduced coord.    0.0000    0.5000    0.6615
      Minimum=    8.7711E-06  at reduced coord.    0.0000    0.0000    0.0000
   Integrated=    1.8000E+02
 ETOT 61  -1193.6423932497    -1.137E-12 3.085E-06 3.880E-26
 scprqt: <Vxc>= -3.0761434E-01 hartree

 Pulay update with  7 previous iterations:
 mixing of old trial potential: alpha(m:m-4)=  0.396      0.447      0.177      0.388E-01 -0.311E-01
 scfcv_core: previous iteration took 26.37 [s]

 ITER STEP NUMBER    62
[...]
                       0.00000000E+00  0.00000000E+00  1.66666667E-01
                       0.00000000E+00  0.00000000E+00  1.25000000E-01
                       0.00000000E+00  0.00000000E+00  8.33333333E-02
                       0.00000000E+00  0.00000000E+00  4.16666667E-02
                       0.00000000E+00  0.00000000E+00  0.00000000E+00
                       2.77777778E-02  2.77777778E-02  2.77777778E-02
                       5.55555556E-02  5.55555556E-02  5.55555556E-02
                       8.33333333E-02  8.33333333E-02  8.33333333E-02
                       1.11111111E-01  1.11111111E-01  1.11111111E-01
                       1.38888889E-01  1.38888889E-01  1.38888889E-01
                       1.66666667E-01  1.66666667E-01  1.66666667E-01
                       1.94444444E-01  1.94444444E-01  1.94444444E-01
                       2.22222222E-01  2.22222222E-01  2.22222222E-01
                       2.50000000E-01  2.50000000E-01  2.50000000E-01
                       2.77777778E-01  2.77777778E-01  2.77777778E-01
                       3.05555556E-01  3.05555556E-01  3.05555556E-01
                       3.33333333E-01  3.33333333E-01  3.33333333E-01
                       3.61111111E-01  3.61111111E-01  3.61111111E-01
                       3.88888889E-01  3.88888889E-01  3.88888889E-01
                       4.16666667E-01  4.16666667E-01  4.16666667E-01
                       4.44444444E-01  4.44444444E-01  4.44444444E-01
                       4.72222222E-01  4.72222222E-01  4.72222222E-01
                       5.00000000E-01  5.00000000E-01  5.00000000E-01
                       4.37500000E-01  5.00000000E-01  5.00000000E-01
                       3.75000000E-01  5.00000000E-01  5.00000000E-01
                       3.12500000E-01  5.00000000E-01  5.00000000E-01
                       2.50000000E-01  5.00000000E-01  5.00000000E-01
                       1.87500000E-01  5.00000000E-01  5.00000000E-01
                       1.25000000E-01  5.00000000E-01  5.00000000E-01
                       6.25000000E-02  5.00000000E-01  5.00000000E-01
                       0.00000000E+00  5.00000000E-01  5.00000000E-01
                       0.00000000E+00  5.00000000E-01  4.37500000E-01
              kpt3     4.16666667E-02  4.16666667E-02  1.25000000E-01
                       1.25000000E-01  4.16666667E-02  1.25000000E-01
                       2.08333333E-01  4.16666667E-02  1.25000000E-01
                       2.91666667E-01  4.16666667E-02  1.25000000E-01
                       3.75000000E-01  4.16666667E-02  1.25000000E-01
                       4.58333333E-01  4.16666667E-02  1.25000000E-01
                       1.25000000E-01  1.25000000E-01  1.25000000E-01
                       2.08333333E-01  1.25000000E-01  1.25000000E-01
                       2.91666667E-01  1.25000000E-01  1.25000000E-01
                       3.75000000E-01  1.25000000E-01  1.25000000E-01
                       4.58333333E-01  1.25000000E-01  1.25000000E-01
                       2.08333333E-01  2.08333333E-01  1.25000000E-01
                       2.91666667E-01  2.08333333E-01  1.25000000E-01
                       3.75000000E-01  2.08333333E-01  1.25000000E-01
                       4.58333333E-01  2.08333333E-01  1.25000000E-01
                       2.91666667E-01  2.91666667E-01  1.25000000E-01
                       3.75000000E-01  2.91666667E-01  1.25000000E-01
                       4.58333333E-01  2.91666667E-01  1.25000000E-01
                       3.75000000E-01  3.75000000E-01  1.25000000E-01
                       4.58333333E-01  3.75000000E-01  1.25000000E-01
                       4.58333333E-01  4.58333333E-01  1.25000000E-01
                       4.16666667E-02  4.16666667E-02  3.75000000E-01
                       1.25000000E-01  4.16666667E-02  3.75000000E-01
                       2.08333333E-01  4.16666667E-02  3.75000000E-01
                       2.91666667E-01  4.16666667E-02  3.75000000E-01
                       3.75000000E-01  4.16666667E-02  3.75000000E-01
                       4.58333333E-01  4.16666667E-02  3.75000000E-01
                       1.25000000E-01  1.25000000E-01  3.75000000E-01
                       2.08333333E-01  1.25000000E-01  3.75000000E-01
                       2.91666667E-01  1.25000000E-01  3.75000000E-01
                       3.75000000E-01  1.25000000E-01  3.75000000E-01
                       4.58333333E-01  1.25000000E-01  3.75000000E-01
                       2.08333333E-01  2.08333333E-01  3.75000000E-01
                       2.91666667E-01  2.08333333E-01  3.75000000E-01
                       3.75000000E-01  2.08333333E-01  3.75000000E-01
                       4.58333333E-01  2.08333333E-01  3.75000000E-01
                       2.91666667E-01  2.91666667E-01  3.75000000E-01
                       3.75000000E-01  2.91666667E-01  3.75000000E-01
                       4.58333333E-01  2.91666667E-01  3.75000000E-01
                       3.75000000E-01  3.75000000E-01  3.75000000E-01
                       4.58333333E-01  3.75000000E-01  3.75000000E-01
                       4.58333333E-01  4.58333333E-01  3.75000000E-01
                       outvar_i_n : Printing only first  50 k-points.
           kptopt1          1
           kptopt2         -5
           kptopt3          1
         kptrlatt       12    0    0      0   12    0      0    0    4
          kptrlen1     9.31491802E+01
          kptrlen2     3.00000000E+01
          kptrlen3     9.31491802E+01
P           mkmem1          7
P           mkmem2         10
P           mkmem3          7
            natom          12
           natsph3       2
            nband1        102
            nband2        102
            nband3        102
           nbdbuf1          0
           nbdbuf2          2
           nbdbuf3          2
           ndtset           3
            ngfft          36      36     192
             nkpt1         42
             nkpt2         57
             nkpt3         42
            nstep1       1000
            nstep2        300
            nstep3        300
             nsym          16
           ntypat           2
              occ      2.000000  2.000000  2.000000  2.000000  2.000000  2.000000
                       2.000000  2.000000  2.000000  2.000000  2.000000  2.000000
                       2.000000  2.000000  2.000000  2.000000  2.000000  2.000000
                       2.000000  2.000000  2.000000  2.000000  2.000000  2.000000
                       2.000000  2.000000  2.000000  2.000000  2.000000  2.000000
                       2.000000  2.000000  2.000000  2.000000  2.000000  2.000000
                       2.000000  2.000000  2.000000  2.000000  2.000000  2.000000
                       2.000000  2.000000  2.000000  2.000000  2.000000  2.000000
                       2.000000  2.000000  2.000000  2.000000  2.000000  2.000000
                       2.000000  2.000000  2.000000  2.000000  2.000000  2.000000
                       2.000000  2.000000  2.000000  2.000000  2.000000  2.000000
                       2.000000  2.000000  2.000000  2.000000  2.000000  2.000000
                       2.000000  2.000000  2.000000  2.000000  2.000000  2.000000
                       2.000000  2.000000  2.000000  2.000000  2.000000  2.000000
                       2.000000  2.000000  2.000000  2.000000  2.000000  2.000000
                       0.000000  0.000000  0.000000  0.000000  0.000000  0.000000
                       0.000000  0.000000  0.000000  0.000000  0.000000  0.000000
           prtcif           1
           prtdos1          0
           prtdos2          0
           prtdos3          3
            rprim      1.0000000000E+00  0.0000000000E+00  0.0000000000E+00
                       0.0000000000E+00  1.0000000000E+00  0.0000000000E+00
                       0.0000000000E+00  0.0000000000E+00  5.5880443615E+00
           shiftk      5.00000000E-01  5.00000000E-01  5.00000000E-01
          spgroup         129
           strten1     1.3139416327E-02  1.3139416327E-02  1.2878934744E-02
                       0.0000000000E+00  0.0000000000E+00  0.0000000000E+00
           symrel      1  0  0   0  1  0   0  0  1      -1  0  0   0 -1  0   0  0 -1
                      -1  0  0   0  1  0   0  0 -1       1  0  0   0 -1  0   0  0  1
                      -1  0  0   0 -1  0   0  0  1       1  0  0   0  1  0   0  0 -1
                       1  0  0   0 -1  0   0  0 -1      -1  0  0   0  1  0   0  0  1
                       0  1  0   1  0  0   0  0  1       0 -1  0  -1  0  0   0  0 -1
                       0 -1  0   1  0  0   0  0 -1       0  1  0  -1  0  0   0  0  1
                       0 -1  0  -1  0  0   0  0  1       0  1  0   1  0  0   0  0 -1
                       0  1  0  -1  0  0   0  0 -1       0 -1  0   1  0  0   0  0  1
            tnons      0.0000000  0.0000000  0.0000000     0.5000000  0.5000000 -0.0000000
                       0.5000000  0.5000000 -0.0000000     0.0000000  0.0000000  0.0000000
                      -0.0000000  0.0000000  0.0000000     0.5000000  0.5000000 -0.0000000
                       0.5000000  0.5000000 -0.0000000    -0.0000000  0.0000000  0.0000000
                       0.5000000  0.5000000  0.0000000     0.0000000 -0.0000000 -0.0000000
                       0.0000000 -0.0000000 -0.0000000     0.5000000  0.5000000  0.0000000
                       0.5000000  0.5000000  0.0000000     0.0000000  0.0000000 -0.0000000
                       0.0000000  0.0000000 -0.0000000     0.5000000  0.5000000  0.0000000
           tolwfr      1.00000000E-20
            typat      1  1  1  1  1  1  2  2  2  2  2  2
           vdw_xc           5
              wtk1       0.01389    0.02778    0.02778    0.02778    0.02778    0.02778
                         0.01389    0.02778    0.02778    0.02778    0.02778    0.01389
                         0.02778    0.02778    0.02778    0.01389    0.02778    0.02778
                         0.01389    0.02778    0.01389    0.01389    0.02778    0.02778
                         0.02778    0.02778    0.02778    0.01389    0.02778    0.02778
                         0.02778    0.02778    0.01389    0.02778    0.02778    0.02778
                         0.01389    0.02778    0.02778    0.01389    0.02778    0.01389
              wtk2       1.00000    1.00000    1.00000    1.00000    1.00000    1.00000
                         1.00000    1.00000    1.00000    1.00000    1.00000    1.00000
                         1.00000    1.00000    1.00000    1.00000    1.00000    1.00000
                         1.00000    1.00000    1.00000    1.00000    1.00000    1.00000
                         1.00000    1.00000    1.00000    1.00000    1.00000    1.00000
                         1.00000    1.00000    1.00000    1.00000    1.00000    1.00000
                         1.00000    1.00000    1.00000    1.00000    1.00000    1.00000
                         1.00000    1.00000    1.00000    1.00000    1.00000    1.00000
                         1.00000    1.00000
              wtk3       0.01389    0.02778    0.02778    0.02778    0.02778    0.02778
                         0.01389    0.02778    0.02778    0.02778    0.02778    0.01389
                         0.02778    0.02778    0.02778    0.01389    0.02778    0.02778
                         0.01389    0.02778    0.01389    0.01389    0.02778    0.02778
                         0.02778    0.02778    0.02778    0.01389    0.02778    0.02778
                         0.02778    0.02778    0.01389    0.02778    0.02778    0.02778
                         0.01389    0.02778    0.02778    0.01389    0.02778    0.01389
                       outvars : Printing only first  50 k-points.
           xangst      2.0538509643E+00  0.0000000000E+00  4.6664605720E+00
                       0.0000000000E+00  2.0538509643E+00  7.4160997457E+00
                       2.0538509643E+00  0.0000000000E+00  1.0102202190E+01
                       0.0000000000E+00  2.0538509643E+00  1.2851818410E+01
                       2.0538509643E+00  0.0000000000E+00  1.5537920855E+01
                       0.0000000000E+00  2.0538509643E+00  1.8287560029E+01
                       0.0000000000E+00  2.0538509643E+00  4.6982289365E+00
                       2.0538509643E+00  0.0000000000E+00  7.3843313812E+00
                       0.0000000000E+00  2.0538509643E+00  1.0133970555E+01
                       2.0538509643E+00  0.0000000000E+00  1.2820050046E+01
                       0.0000000000E+00  2.0538509643E+00  1.5569689219E+01
                       2.0538509643E+00  0.0000000000E+00  1.8255791664E+01
            xcart      3.8812158402E+00  0.0000000000E+00  8.8183324910E+00
                       0.0000000000E+00  3.8812158402E+00  1.4014397494E+01
                       3.8812158402E+00  0.0000000000E+00  1.9090395479E+01
                       0.0000000000E+00  3.8812158402E+00  2.4286417105E+01
                       3.8812158402E+00  0.0000000000E+00  2.9362415090E+01
                       0.0000000000E+00  3.8812158402E+00  3.4558480093E+01
                       0.0000000000E+00  3.8812158402E+00  8.8783659996E+00
                       3.8812158402E+00  0.0000000000E+00  1.3954363985E+01
                       0.0000000000E+00  3.8812158402E+00  1.9150428988E+01
                       3.8812158402E+00  0.0000000000E+00  2.4226383596E+01
                       0.0000000000E+00  3.8812158402E+00  2.9422448599E+01
                       3.8812158402E+00  0.0000000000E+00  3.4498446584E+01
             xred      5.0000000000E-01  0.0000000000E+00  2.0329600000E-01
                       0.0000000000E+00  5.0000000000E-01  3.2308500000E-01
                       5.0000000000E-01  0.0000000000E+00  4.4010600000E-01
                       0.0000000000E+00  5.0000000000E-01  5.5989400000E-01
                       5.0000000000E-01  0.0000000000E+00  6.7691500000E-01
                       0.0000000000E+00  5.0000000000E-01  7.9670400000E-01
                       0.0000000000E+00  5.0000000000E-01  2.0468000000E-01
                       5.0000000000E-01  0.0000000000E+00  3.2170100000E-01
                       0.0000000000E+00  5.0000000000E-01  4.4149000000E-01
                       5.0000000000E-01  0.0000000000E+00  5.5851000000E-01
                       0.0000000000E+00  5.0000000000E-01  6.7829900000E-01
                       5.0000000000E-01  0.0000000000E+00  7.9532000000E-01
            znucl       50.00000   34.00000

================================================================================
  

================================================================================

 Suggested references for the acknowledgment of ABINIT usage.

 The users of ABINIT have little formal obligations with respect to the ABINIT group
 (those specified in the GNU General Public License, http://www.gnu.org/copyleft/gpl.txt).
 However, it is common practice in the scientific literature,
 to acknowledge the efforts of people that have made the research possible.
 In this spirit, please find below suggested citations of work written by ABINIT developers,
 corresponding to implementations inside of ABINIT that you have used in the present run.
 Note also that it will be of great value to readers of publications presenting these results,
 to read papers enabling them to understand the theoretical formalism and details
 of the ABINIT implementation.
 For information on why they are suggested, see also https://docs.abinit.org/theory/acknowledgments.
-
- [1] Libxc: A library of exchange and correlation functionals for density functional theory.
- M.A.L. Marques, M.J.T. Oliveira, T. Burnus, Computer Physics Communications 183, 2227 (2012).
- Comment: to be cited when LibXC is used (negative value of ixc)
- Strong suggestion to cite this paper.
- DOI and bibtex: see https://docs.abinit.org/theory/bibliography/#marques2012
-
- [2] The Abinit project: Impact, environment and recent developments.
- Computer Phys. Comm. 248, 107042 (2020).
- X.Gonze, B. Amadon, G. Antonius, F.Arnardi, L.Baguet, J.-M.Beuken,
- J.Bieder, F.Bottin, J.Bouchet, E.Bousquet, N.Brouwer, F.Bruneval,
- G.Brunin, T.Cavignac, J.-B. Charraud, Wei Chen, M.Cote, S.Cottenier,
- J.Denier, G.Geneste, Ph.Ghosez, M.Giantomassi, Y.Gillet, O.Gingras,
- D.R.Hamann, G.Hautier, Xu He, N.Helbig, N.Holzwarth, Y.Jia, F.Jollet,
- W.Lafargue-Dit-Hauret, K.Lejaeghere, M.A.L.Marques, A.Martin, C.Martins,
- H.P.C. Miranda, F.Naccarato, K. Persson, G.Petretto, V.Planes, Y.Pouillon,
- S.Prokhorenko, F.Ricci, G.-M.Rignanese, A.H.Romero, M.M.Schmitt, M.Torrent,
- M.J.van Setten, B.Van Troeye, M.J.Verstraete, G.Zerah and J.W.Zwanzig
- Comment: the fifth generic paper describing the ABINIT project.
- Note that a version of this paper, that is not formatted for Computer Phys. Comm. 
- is available at https://www.abinit.org/sites/default/files/ABINIT20.pdf .
- The licence allows the authors to put it on the Web.
- DOI and bibtex: see https://docs.abinit.org/theory/bibliography/#gonze2020
-
- [3] Optimized norm-conserving Vanderbilt pseudopotentials.
- D.R. Hamann, Phys. Rev. B 88, 085117 (2013).
- Comment: Some pseudopotential generated using the ONCVPSP code were used.
- DOI and bibtex: see https://docs.abinit.org/theory/bibliography/#hamann2013
-
- [4] ABINIT: Overview, and focus on selected capabilities
- J. Chem. Phys. 152, 124102 (2020).
- A. Romero, D.C. Allan, B. Amadon, G. Antonius, T. Applencourt, L.Baguet,
- J.Bieder, F.Bottin, J.Bouchet, E.Bousquet, F.Bruneval,
- G.Brunin, D.Caliste, M.Cote,
- J.Denier, C. Dreyer, Ph.Ghosez, M.Giantomassi, Y.Gillet, O.Gingras,
- D.R.Hamann, G.Hautier, F.Jollet, G. Jomard,
- A.Martin, 
- H.P.C. Miranda, F.Naccarato, G.Petretto, N.A. Pike, V.Planes,
- S.Prokhorenko, T. Rangel, F.Ricci, G.-M.Rignanese, M.Royo, M.Stengel, M.Torrent,
- M.J.van Setten, B.Van Troeye, M.J.Verstraete, J.Wiktor, J.W.Zwanziger, and X.Gonze.
- Comment: a global overview of ABINIT, with focus on selected capabilities .
- Note that a version of this paper, that is not formatted for J. Chem. Phys 
- is available at https://www.abinit.org/sites/default/files/ABINIT20_JPC.pdf .
- The licence allows the authors to put it on the Web.
- DOI and bibtex: see https://docs.abinit.org/theory/bibliography/#romero2020
-
- [5] Recent developments in the ABINIT software package.
- Computer Phys. Comm. 205, 106 (2016).
- X.Gonze, F.Jollet, F.Abreu Araujo, D.Adams, B.Amadon, T.Applencourt,
- C.Audouze, J.-M.Beuken, J.Bieder, A.Bokhanchuk, E.Bousquet, F.Bruneval
- D.Caliste, M.Cote, F.Dahm, F.Da Pieve, M.Delaveau, M.Di Gennaro,
- B.Dorado, C.Espejo, G.Geneste, L.Genovese, A.Gerossier, M.Giantomassi,
- Y.Gillet, D.R.Hamann, L.He, G.Jomard, J.Laflamme Janssen, S.Le Roux,
- A.Levitt, A.Lherbier, F.Liu, I.Lukacevic, A.Martin, C.Martins,
- M.J.T.Oliveira, S.Ponce, Y.Pouillon, T.Rangel, G.-M.Rignanese,
- A.H.Romero, B.Rousseau, O.Rubel, A.A.Shukri, M.Stankovski, M.Torrent,
- M.J.Van Setten, B.Van Troeye, M.J.Verstraete, D.Waroquier, J.Wiktor,
- B.Xu, A.Zhou, J.W.Zwanziger.
- Comment: the fourth generic paper describing the ABINIT project.
- Note that a version of this paper, that is not formatted for Computer Phys. Comm. 
- is available at https://www.abinit.org/sites/default/files/ABINIT16.pdf .
- The licence allows the authors to put it on the Web.
- DOI and bibtex: see https://docs.abinit.org/theory/bibliography/#gonze2016
 Proc.   0 individual time (sec): cpu=      32410.2  wall=      32411.4

 Calculation completed.
.Delivered   2 WARNINGs and   0 COMMENTs to log file.

--- !FinalSummary
program: abinit
version: 9.2.2
start_datetime: Sun Feb 25 20:59:56 2024
end_datetime: Mon Feb 26 06:00:08 2024
overall_cpu_time:      194462.6
overall_wall_time:      194468.4
exit_requested_by_user: no 
timelimit: 0
pseudos: 
    Sn  : c918e999fc214fef37654f9ff7d5f03d
    Se  : f801923bd422df98a30264e8ccc86374
usepaw: 0
mpi_procs: 6
omp_threads: 1
num_warnings: 2
num_comments: 0
...
