
.Version 9.2.2 of ABINIT 
.(MPI version, prepared for a x86_64_linux_gnu9.3 computer) 

.Copyright (C) 1998-2020 ABINIT group . 
 ABINIT comes with ABSOLUTELY NO WARRANTY.
 It is free software, and you are welcome to redistribute it
 under certain conditions (GNU General Public License,
 see ~abinit/COPYING or http://www.gnu.org/copyleft/gpl.txt).

 ABINIT is a project of the Universite Catholique de Louvain,
 Corning Inc. and other collaborators, see ~abinit/doc/developers/contributors.txt .
 Please read https://docs.abinit.org/theory/acknowledgments for suggested
 acknowledgments of the ABINIT effort.
 For more information, see https://www.abinit.org .

.Starting date : Fri  1 Mar 2024.
- ( at 00h53 )
  
- The starting date is more than 3 years after the initial release
- of this version of ABINIT, namely Nov 2020.
- This version of ABINIT is not supported anymore.
- Action: please, switch to a more recent version of ABINIT.
- input  file    -> Cs2TiI6.in
- output file    -> Cs2TiI6.out
- root for input  files -> Cs2TiI6i
- root for output files -> Cs2TiI6o


 DATASET    1 : space group P4 m m (# 99); Bravais tP (primitive tetrag.)
================================================================================
 Values of the parameters that define the memory need for DATASET  1.
     intxc =       0    ionmov =       0      iscf =       7    lmnmax =       6
     lnmax =       6     mgfft =     256  mpssoang =       3    mqgrid =   12553
     natom =      18  nloc_mem =       1    nspden =       1   nspinor =       1
    nsppol =       1      nsym =       8    n1xccc =    2501    ntypat =       2
    occopt =       1   xclevel =       2
-    mband =         138        mffmem =           1         mkmem =           1
       mpw =       18106          nfft =      331776          nkpt =           6
================================================================================
P This job should need less than                     148.808 Mbytes of memory.
  Rough estimation (10% accuracy) of disk space for files :
_ WF disk file :    228.758 Mbytes ; DEN or POT disk file :      2.533 Mbytes.
================================================================================


 DATASET    2 : space group P4 m m (# 99); Bravais tP (primitive tetrag.)
================================================================================
 Values of the parameters that define the memory need for DATASET  2.
     intxc =       0    ionmov =       0      iscf =      -2    lmnmax =       6
     lnmax =       6     mgfft =     256  mpssoang =       3    mqgrid =   12553
     natom =      18  nloc_mem =       1    nspden =       1   nspinor =       1
    nsppol =       1      nsym =       8    n1xccc =    2501    ntypat =       2
    occopt =       1   xclevel =       2
-    mband =         300        mffmem =           1         mkmem =           1
       mpw =       18106          nfft =      331776          nkpt =           6
================================================================================
P This job should need less than                     150.556 Mbytes of memory.
  Rough estimation (10% accuracy) of disk space for files :
_ WF disk file :    497.298 Mbytes ; DEN or POT disk file :      2.533 Mbytes.
================================================================================


 DATASET    3 : space group P4 m m (# 99); Bravais tP (primitive tetrag.)
================================================================================
 Values of the parameters that define the memory need for DATASET  3.
     intxc =       0    ionmov =       0      iscf =      -2    lmnmax =       6
     lnmax =       6     mgfft =     256  mpssoang =       3    mqgrid =   12553
     natom =      18  nloc_mem =       1    nspden =       1   nspinor =       1
    nsppol =       1      nsym =       8    n1xccc =    2501    ntypat =       2
    occopt =       1   xclevel =       2
-    mband =         300        mffmem =           1         mkmem =           3
       mpw =       18106          nfft =      331776          nkpt =          18
================================================================================
P This job should need less than                     317.424 Mbytes of memory.
  Rough estimation (10% accuracy) of disk space for files :
_ WF disk file :   1491.890 Mbytes ; DEN or POT disk file :      2.533 Mbytes.
================================================================================


 DATASET    4 : space group P4 m m (# 99); Bravais tP (primitive tetrag.)
================================================================================
 Values of the parameters that define the memory need for DATASET  4 (RF).
     intxc =       0      iscf =      -3    lmnmax =       6     lnmax =       6
     mgfft =     256  mpssoang =       3    mqgrid =   12553     natom =      18
  nloc_mem =       1    nspden =       1   nspinor =       1    nsppol =       1
      nsym =       8    n1xccc =    2501    ntypat =       2    occopt =       1
   xclevel =       2
-    mband =         300        mffmem =           1         mkmem =           3
-   mkqmem =           3        mk1mem =           3           mpw =       18106
      nfft =      331776          nkpt =          18
================================================================================
P This job should need less than                     854.006 Mbytes of memory.
  Rough estimation (10% accuracy) of disk space for files :
_ WF disk file :   1491.890 Mbytes ; DEN or POT disk file :      2.533 Mbytes.
================================================================================


 DATASET    5 : space group P4 m m (# 99); Bravais tP (primitive tetrag.)
================================================================================
 Values of the parameters that define the memory need for DATASET  5 (RF).
     intxc =       0      iscf =      -3    lmnmax =       6     lnmax =       6
     mgfft =     256  mpssoang =       3    mqgrid =   12553     natom =      18
  nloc_mem =       1    nspden =       1   nspinor =       1    nsppol =       1
      nsym =       8    n1xccc =    2501    ntypat =       2    occopt =       1
   xclevel =       2
-    mband =         300        mffmem =           1         mkmem =           3
-   mkqmem =           3        mk1mem =           3           mpw =       18106
      nfft =      331776          nkpt =          18
================================================================================
P This job should need less than                     854.006 Mbytes of memory.
  Rough estimation (10% accuracy) of disk space for files :
_ WF disk file :   1491.890 Mbytes ; DEN or POT disk file :      2.533 Mbytes.
================================================================================


 DATASET    6 : space group P4 m m (# 99); Bravais tP (primitive tetrag.)
================================================================================
 Values of the parameters that define the memory need for DATASET  6 (RF).
     intxc =       0      iscf =      -3    lmnmax =       6     lnmax =       6
     mgfft =     256  mpssoang =       3    mqgrid =   12553     natom =      18
  nloc_mem =       1    nspden =       1   nspinor =       1    nsppol =       1
      nsym =       8    n1xccc =    2501    ntypat =       2    occopt =       1
   xclevel =       2
-    mband =         300        mffmem =           1         mkmem =           3
-   mkqmem =           3        mk1mem =           3           mpw =       18106
      nfft =      331776          nkpt =          18
================================================================================
P This job should need less than                     854.006 Mbytes of memory.
  Rough estimation (10% accuracy) of disk space for files :
_ WF disk file :   1491.890 Mbytes ; DEN or POT disk file :      2.533 Mbytes.
================================================================================

--------------------------------------------------------------------------------
------------- Echo of variables that govern the present computation ------------
--------------------------------------------------------------------------------
-
- outvars: echo of selected default values                                      
-   iomode0 =  0 , fftalg0 =112 , wfoptalg0 =  0
-
- outvars: echo of global parameters not present in the input file              
-  max_nthreads =    0
-
 -outvars: echo values of preprocessed input variables --------
            acell      7.7624316804E+00  7.7624316804E+00  7.7624316804E+00 Bohr
              amu      1.18710000E+02  7.89600000E+01
           diemac      1.20000000E+01
             ecut      2.25000000E+01 Hartree
-          fftalg         112
           getden1          0
           getden2          1
           getden3          1
           getden4          0
           getden5          0
           getden6          0
           getwfk1          0
           getwfk2          1
           getwfk3          2
           getwfk4          3
           getwfk5          3
           getwfk6          3
             iscf1          7
             iscf2         -2
             iscf3         -2
             iscf4         -3
             iscf5         -3
             iscf6         -3
              ixc          11
           jdtset        1    2    3    4    5    6
              kpt1     8.33333333E-02  8.33333333E-02  5.00000000E-01
                       2.50000000E-01  8.33333333E-02  5.00000000E-01
                       4.16666667E-01  8.33333333E-02  5.00000000E-01
                       2.50000000E-01  2.50000000E-01  5.00000000E-01
                       4.16666667E-01  2.50000000E-01  5.00000000E-01
                       4.16666667E-01  4.16666667E-01  5.00000000E-01
              kpt2     8.33333333E-02  8.33333333E-02  5.00000000E-01
                       2.50000000E-01  8.33333333E-02  5.00000000E-01
                       4.16666667E-01  8.33333333E-02  5.00000000E-01
                       2.50000000E-01  2.50000000E-01  5.00000000E-01
                       4.16666667E-01  2.50000000E-01  5.00000000E-01
                       4.16666667E-01  4.16666667E-01  5.00000000E-01
              kpt3     8.33333333E-02  8.33333333E-02  5.00000000E-01
                       2.50000000E-01  8.33333333E-02  5.00000000E-01
                       4.16666667E-01  8.33333333E-02  5.00000000E-01
                      -4.16666667E-01  8.33333333E-02  5.00000000E-01
                      -2.50000000E-01  8.33333333E-02  5.00000000E-01
                      -8.33333333E-02  8.33333333E-02  5.00000000E-01
                       8.33333333E-02  2.50000000E-01  5.00000000E-01
                       2.50000000E-01  2.50000000E-01  5.00000000E-01
                       4.16666667E-01  2.50000000E-01  5.00000000E-01
                      -4.16666667E-01  2.50000000E-01  5.00000000E-01
                      -2.50000000E-01  2.50000000E-01  5.00000000E-01
                      -8.33333333E-02  2.50000000E-01  5.00000000E-01
                       8.33333333E-02  4.16666667E-01  5.00000000E-01
                       2.50000000E-01  4.16666667E-01  5.00000000E-01
                       4.16666667E-01  4.16666667E-01  5.00000000E-01
                      -4.16666667E-01  4.16666667E-01  5.00000000E-01
                      -2.50000000E-01  4.16666667E-01  5.00000000E-01
                      -8.33333333E-02  4.16666667E-01  5.00000000E-01
              kpt4     8.33333333E-02  8.33333333E-02  5.00000000E-01
                       2.50000000E-01  8.33333333E-02  5.00000000E-01
                       4.16666667E-01  8.33333333E-02  5.00000000E-01
                      -4.16666667E-01  8.33333333E-02  5.00000000E-01
                      -2.50000000E-01  8.33333333E-02  5.00000000E-01
                      -8.33333333E-02  8.33333333E-02  5.00000000E-01
                       8.33333333E-02  2.50000000E-01  5.00000000E-01
                       2.50000000E-01  2.50000000E-01  5.00000000E-01
                       4.16666667E-01  2.50000000E-01  5.00000000E-01
                      -4.16666667E-01  2.50000000E-01  5.00000000E-01
                      -2.50000000E-01  2.50000000E-01  5.00000000E-01
                      -8.33333333E-02  2.50000000E-01  5.00000000E-01
                       8.33333333E-02  4.16666667E-01  5.00000000E-01
                       2.50000000E-01  4.16666667E-01  5.00000000E-01
                       4.16666667E-01  4.16666667E-01  5.00000000E-01
                      -4.16666667E-01  4.16666667E-01  5.00000000E-01
                      -2.50000000E-01  4.16666667E-01  5.00000000E-01
                      -8.33333333E-02  4.16666667E-01  5.00000000E-01
              kpt5     8.33333333E-02  8.33333333E-02  5.00000000E-01
                       2.50000000E-01  8.33333333E-02  5.00000000E-01
                       4.16666667E-01  8.33333333E-02  5.00000000E-01
                      -4.16666667E-01  8.33333333E-02  5.00000000E-01
                      -2.50000000E-01  8.33333333E-02  5.00000000E-01
                      -8.33333333E-02  8.33333333E-02  5.00000000E-01
                       8.33333333E-02  2.50000000E-01  5.00000000E-01
                       2.50000000E-01  2.50000000E-01  5.00000000E-01
                       4.16666667E-01  2.50000000E-01  5.00000000E-01
                      -4.16666667E-01  2.50000000E-01  5.00000000E-01
                      -2.50000000E-01  2.50000000E-01  5.00000000E-01
                      -8.33333333E-02  2.50000000E-01  5.00000000E-01
                       8.33333333E-02  4.16666667E-01  5.00000000E-01
                       2.50000000E-01  4.16666667E-01  5.00000000E-01
                       4.16666667E-01  4.16666667E-01  5.00000000E-01
                      -4.16666667E-01  4.16666667E-01  5.00000000E-01
                      -2.50000000E-01  4.16666667E-01  5.00000000E-01
                      -8.33333333E-02  4.16666667E-01  5.00000000E-01
              kpt6     8.33333333E-02  8.33333333E-02  5.00000000E-01
                       2.50000000E-01  8.33333333E-02  5.00000000E-01
                       4.16666667E-01  8.33333333E-02  5.00000000E-01
                      -4.16666667E-01  8.33333333E-02  5.00000000E-01
                      -2.50000000E-01  8.33333333E-02  5.00000000E-01
                      -8.33333333E-02  8.33333333E-02  5.00000000E-01
                       8.33333333E-02  2.50000000E-01  5.00000000E-01
                       2.50000000E-01  2.50000000E-01  5.00000000E-01
                       4.16666667E-01  2.50000000E-01  5.00000000E-01
                      -4.16666667E-01  2.50000000E-01  5.00000000E-01
                      -2.50000000E-01  2.50000000E-01  5.00000000E-01
                      -8.33333333E-02  2.50000000E-01  5.00000000E-01
                       8.33333333E-02  4.16666667E-01  5.00000000E-01
                       2.50000000E-01  4.16666667E-01  5.00000000E-01
                       4.16666667E-01  4.16666667E-01  5.00000000E-01
                      -4.16666667E-01  4.16666667E-01  5.00000000E-01
                      -2.50000000E-01  4.16666667E-01  5.00000000E-01
                      -8.33333333E-02  4.16666667E-01  5.00000000E-01
           kptopt1          1
           kptopt2          1
           kptopt3          2
           kptopt4          2
           kptopt5          2
           kptopt6          2
         kptrlatt        6    0    0      0    6    0      0    0    1
          kptrlen      4.65745901E+01
P           mkmem1          1
P           mkmem2          1
P           mkmem3          3
P           mkmem4          3
P           mkmem5          3
P           mkmem6          3
P          mkqmem1          1
P          mkqmem2          1
P          mkqmem3          3
P          mkqmem4          3
P          mkqmem5          3
P          mkqmem6          3
P          mk1mem1          1
P          mk1mem2          1
P          mk1mem3          3
P          mk1mem4          3
P          mk1mem5          3
P          mk1mem6          3
            natom          18
            nband1        138
            nband2        300
            nband3        300
            nband4        300
            nband5        300
            nband6        300
           nbdbuf1          0
           nbdbuf2          2
           nbdbuf3          2
           nbdbuf4          2
           nbdbuf5          2
           nbdbuf6          2
           ndtset           6
            ngfft          36      36     256
             nkpt1          6
             nkpt2          6
             nkpt3         18
             nkpt4         18
             nkpt5         18
             nkpt6         18
            nline1          4
            nline2          4
            nline3          4
            nline4          0
            nline5          0
            nline6          0
             nqpt1          0
             nqpt2          0
             nqpt3          0
             nqpt4          1
             nqpt5          1
             nqpt6          1
            nstep1        400
            nstep2        200
            nstep3        200
            nstep4          1
            nstep5          1
            nstep6          1
             nsym           8
           ntypat           2
              occ1     2.000000  2.000000  2.000000  2.000000  2.000000  2.000000
                       2.000000  2.000000  2.000000  2.000000  2.000000  2.000000
                       2.000000  2.000000  2.000000  2.000000  2.000000  2.000000
                       2.000000  2.000000  2.000000  2.000000  2.000000  2.000000
                       2.000000  2.000000  2.000000  2.000000  2.000000  2.000000
                       2.000000  2.000000  2.000000  2.000000  2.000000  2.000000
                       2.000000  2.000000  2.000000  2.000000  2.000000  2.000000
                       2.000000  2.000000  2.000000  2.000000  2.000000  2.000000
                       2.000000  2.000000  2.000000  2.000000  2.000000  2.000000
                       2.000000  2.000000  2.000000  2.000000  2.000000  2.000000
                       2.000000  2.000000  2.000000  2.000000  2.000000  2.000000
                       2.000000  2.000000  2.000000  2.000000  2.000000  2.000000
                       2.000000  2.000000  2.000000  2.000000  2.000000  2.000000
                       2.000000  2.000000  2.000000  2.000000  2.000000  2.000000
                       2.000000  2.000000  2.000000  2.000000  2.000000  2.000000
                       2.000000  2.000000  2.000000  2.000000  2.000000  2.000000
                       2.000000  2.000000  2.000000  2.000000  2.000000  2.000000
                       2.000000  2.000000  2.000000  2.000000  2.000000  2.000000
                       2.000000  2.000000  2.000000  2.000000  2.000000  2.000000
                       2.000000  2.000000  2.000000  2.000000  2.000000  2.000000
                       2.000000  2.000000  2.000000  2.000000  2.000000  2.000000
                       2.000000  2.000000  2.000000  2.000000  2.000000  2.000000
                       2.000000  2.000000  2.000000  0.000000  0.000000  0.000000
              occ4     2.000000  2.000000  2.000000  2.000000  2.000000  2.000000
                       2.000000  2.000000  2.000000  2.000000  2.000000  2.000000
                       2.000000  2.000000  2.000000  2.000000  2.000000  2.000000
                       2.000000  2.000000  2.000000  2.000000  2.000000  2.000000
                       2.000000  2.000000  2.000000  2.000000  2.000000  2.000000
                       2.000000  2.000000  2.000000  2.000000  2.000000  2.000000
                       2.000000  2.000000  2.000000  2.000000  2.000000  2.000000
                       2.000000  2.000000  2.000000  2.000000  2.000000  2.000000
                       2.000000  2.000000  2.000000  2.000000  2.000000  2.000000
                       2.000000  2.000000  2.000000  2.000000  2.000000  2.000000
                       2.000000  2.000000  2.000000  2.000000  2.000000  2.000000
                       2.000000  2.000000  2.000000  2.000000  2.000000  2.000000
                       2.000000  2.000000  2.000000  2.000000  2.000000  2.000000
                       2.000000  2.000000  2.000000  2.000000  2.000000  2.000000
                       2.000000  2.000000  2.000000  2.000000  2.000000  2.000000
                       2.000000  2.000000  2.000000  2.000000  2.000000  2.000000
                       2.000000  2.000000  2.000000  2.000000  2.000000  2.000000
                       2.000000  2.000000  2.000000  2.000000  2.000000  2.000000
                       2.000000  2.000000  2.000000  2.000000  2.000000  2.000000
                       2.000000  2.000000  2.000000  2.000000  2.000000  2.000000
                       2.000000  2.000000  2.000000  2.000000  2.000000  2.000000
                       2.000000  2.000000  2.000000  2.000000  2.000000  2.000000
                       2.000000  2.000000  2.000000  0.000000  0.000000  0.000000
                       0.000000  0.000000  0.000000  0.000000  0.000000  0.000000
                       0.000000  0.000000  0.000000  0.000000  0.000000  0.000000
                       0.000000  0.000000  0.000000  0.000000  0.000000  0.000000
                       0.000000  0.000000  0.000000  0.000000  0.000000  0.000000
                       0.000000  0.000000  0.000000  0.000000  0.000000  0.000000
                       0.000000  0.000000  0.000000  0.000000  0.000000  0.000000
                       0.000000  0.000000  0.000000  0.000000  0.000000  0.000000
                       0.000000  0.000000  0.000000  0.000000  0.000000  0.000000
                       0.000000  0.000000  0.000000  0.000000  0.000000  0.000000
                       0.000000  0.000000  0.000000  0.000000  0.000000  0.000000
                       0.000000  0.000000  0.000000  0.000000  0.000000  0.000000
                       0.000000  0.000000  0.000000  0.000000  0.000000  0.000000
                       0.000000  0.000000  0.000000  0.000000  0.000000  0.000000
                       0.000000  0.000000  0.000000  0.000000  0.000000  0.000000
                       0.000000  0.000000  0.000000  0.000000  0.000000  0.000000
                       0.000000  0.000000  0.000000  0.000000  0.000000  0.000000
                       0.000000  0.000000  0.000000  0.000000  0.000000  0.000000
                       0.000000  0.000000  0.000000  0.000000  0.000000  0.000000
                       0.000000  0.000000  0.000000  0.000000  0.000000  0.000000
                       0.000000  0.000000  0.000000  0.000000  0.000000  0.000000
                       0.000000  0.000000  0.000000  0.000000  0.000000  0.000000
                       0.000000  0.000000  0.000000  0.000000  0.000000  0.000000
                       0.000000  0.000000  0.000000  0.000000  0.000000  0.000000
                       0.000000  0.000000  0.000000  0.000000  0.000000  0.000000
                       0.000000  0.000000  0.000000  0.000000  0.000000  0.000000
                       0.000000  0.000000  0.000000  0.000000  0.000000  0.000000
                       0.000000  0.000000  0.000000  0.000000  0.000000  0.000000
              occ5     2.000000  2.000000  2.000000  2.000000  2.000000  2.000000
                       2.000000  2.000000  2.000000  2.000000  2.000000  2.000000
                       2.000000  2.000000  2.000000  2.000000  2.000000  2.000000
                       2.000000  2.000000  2.000000  2.000000  2.000000  2.000000
                       2.000000  2.000000  2.000000  2.000000  2.000000  2.000000
                       2.000000  2.000000  2.000000  2.000000  2.000000  2.000000
                       2.000000  2.000000  2.000000  2.000000  2.000000  2.000000
                       2.000000  2.000000  2.000000  2.000000  2.000000  2.000000
                       2.000000  2.000000  2.000000  2.000000  2.000000  2.000000
                       2.000000  2.000000  2.000000  2.000000  2.000000  2.000000
                       2.000000  2.000000  2.000000  2.000000  2.000000  2.000000
                       2.000000  2.000000  2.000000  2.000000  2.000000  2.000000
                       2.000000  2.000000  2.000000  2.000000  2.000000  2.000000
                       2.000000  2.000000  2.000000  2.000000  2.000000  2.000000
                       2.000000  2.000000  2.000000  2.000000  2.000000  2.000000
                       2.000000  2.000000  2.000000  2.000000  2.000000  2.000000
                       2.000000  2.000000  2.000000  2.000000  2.000000  2.000000
                       2.000000  2.000000  2.000000  2.000000  2.000000  2.000000
                       2.000000  2.000000  2.000000  2.000000  2.000000  2.000000
                       2.000000  2.000000  2.000000  2.000000  2.000000  2.000000
                       2.000000  2.000000  2.000000  2.000000  2.000000  2.000000
                       2.000000  2.000000  2.000000  2.000000  2.000000  2.000000
                       2.000000  2.000000  2.000000  0.000000  0.000000  0.000000
                       0.000000  0.000000  0.000000  0.000000  0.000000  0.000000
                       0.000000  0.000000  0.000000  0.000000  0.000000  0.000000
                       0.000000  0.000000  0.000000  0.000000  0.000000  0.000000
                       0.000000  0.000000  0.000000  0.000000  0.000000  0.000000
                       0.000000  0.000000  0.000000  0.000000  0.000000  0.000000
                       0.000000  0.000000  0.000000  0.000000  0.000000  0.000000
                       0.000000  0.000000  0.000000  0.000000  0.000000  0.000000
                       0.000000  0.000000  0.000000  0.000000  0.000000  0.000000
                       0.000000  0.000000  0.000000  0.000000  0.000000  0.000000
                       0.000000  0.000000  0.000000  0.000000  0.000000  0.000000
                       0.000000  0.000000  0.000000  0.000000  0.000000  0.000000
                       0.000000  0.000000  0.000000  0.000000  0.000000  0.000000
                       0.000000  0.000000  0.000000  0.000000  0.000000  0.000000
                       0.000000  0.000000  0.000000  0.000000  0.000000  0.000000
                       0.000000  0.000000  0.000000  0.000000  0.000000  0.000000
                       0.000000  0.000000  0.000000  0.000000  0.000000  0.000000
                       0.000000  0.000000  0.000000  0.000000  0.000000  0.000000
                       0.000000  0.000000  0.000000  0.000000  0.000000  0.000000
                       0.000000  0.000000  0.000000  0.000000  0.000000  0.000000
                       0.000000  0.000000  0.000000  0.000000  0.000000  0.000000
                       0.000000  0.000000  0.000000  0.000000  0.000000  0.000000
                       0.000000  0.000000  0.000000  0.000000  0.000000  0.000000
                       0.000000  0.000000  0.000000  0.000000  0.000000  0.000000
                       0.000000  0.000000  0.000000  0.000000  0.000000  0.000000
                       0.000000  0.000000  0.000000  0.000000  0.000000  0.000000
                       0.000000  0.000000  0.000000  0.000000  0.000000  0.000000
                       0.000000  0.000000  0.000000  0.000000  0.000000  0.000000
              occ6     2.000000  2.000000  2.000000  2.000000  2.000000  2.000000
                       2.000000  2.000000  2.000000  2.000000  2.000000  2.000000
                       2.000000  2.000000  2.000000  2.000000  2.000000  2.000000
                       2.000000  2.000000  2.000000  2.000000  2.000000  2.000000
                       2.000000  2.000000  2.000000  2.000000  2.000000  2.000000
                       2.000000  2.000000  2.000000  2.000000  2.000000  2.000000
                       2.000000  2.000000  2.000000  2.000000  2.000000  2.000000
                       2.000000  2.000000  2.000000  2.000000  2.000000  2.000000
                       2.000000  2.000000  2.000000  2.000000  2.000000  2.000000
                       2.000000  2.000000  2.000000  2.000000  2.000000  2.000000
                       2.000000  2.000000  2.000000  2.000000  2.000000  2.000000
                       2.000000  2.000000  2.000000  2.000000  2.000000  2.000000
                       2.000000  2.000000  2.000000  2.000000  2.000000  2.000000
                       2.000000  2.000000  2.000000  2.000000  2.000000  2.000000
                       2.000000  2.000000  2.000000  2.000000  2.000000  2.000000
                       2.000000  2.000000  2.000000  2.000000  2.000000  2.000000
                       2.000000  2.000000  2.000000  2.000000  2.000000  2.000000
                       2.000000  2.000000  2.000000  2.000000  2.000000  2.000000
                       2.000000  2.000000  2.000000  2.000000  2.000000  2.000000
                       2.000000  2.000000  2.000000  2.000000  2.000000  2.000000
                       2.000000  2.000000  2.000000  2.000000  2.000000  2.000000
                       2.000000  2.000000  2.000000  2.000000  2.000000  2.000000
                       2.000000  2.000000  2.000000  0.000000  0.000000  0.000000
                       0.000000  0.000000  0.000000  0.000000  0.000000  0.000000
                       0.000000  0.000000  0.000000  0.000000  0.000000  0.000000
                       0.000000  0.000000  0.000000  0.000000  0.000000  0.000000
                       0.000000  0.000000  0.000000  0.000000  0.000000  0.000000
                       0.000000  0.000000  0.000000  0.000000  0.000000  0.000000
                       0.000000  0.000000  0.000000  0.000000  0.000000  0.000000
                       0.000000  0.000000  0.000000  0.000000  0.000000  0.000000
                       0.000000  0.000000  0.000000  0.000000  0.000000  0.000000
                       0.000000  0.000000  0.000000  0.000000  0.000000  0.000000
                       0.000000  0.000000  0.000000  0.000000  0.000000  0.000000
                       0.000000  0.000000  0.000000  0.000000  0.000000  0.000000
                       0.000000  0.000000  0.000000  0.000000  0.000000  0.000000
                       0.000000  0.000000  0.000000  0.000000  0.000000  0.000000
                       0.000000  0.000000  0.000000  0.000000  0.000000  0.000000
                       0.000000  0.000000  0.000000  0.000000  0.000000  0.000000
                       0.000000  0.000000  0.000000  0.000000  0.000000  0.000000
                       0.000000  0.000000  0.000000  0.000000  0.000000  0.000000
                       0.000000  0.000000  0.000000  0.000000  0.000000  0.000000
                       0.000000  0.000000  0.000000  0.000000  0.000000  0.000000
                       0.000000  0.000000  0.000000  0.000000  0.000000  0.000000
                       0.000000  0.000000  0.000000  0.000000  0.000000  0.000000
                       0.000000  0.000000  0.000000  0.000000  0.000000  0.000000
                       0.000000  0.000000  0.000000  0.000000  0.000000  0.000000
                       0.000000  0.000000  0.000000  0.000000  0.000000  0.000000
                       0.000000  0.000000  0.000000  0.000000  0.000000  0.000000
                       0.000000  0.000000  0.000000  0.000000  0.000000  0.000000
                       0.000000  0.000000  0.000000  0.000000  0.000000  0.000000
        optdriver1          0
        optdriver2          0
        optdriver3          0
        optdriver4          1
        optdriver5          1
        optdriver6          1
            prtwf1          1
            prtwf2          1
            prtwf3          1
            prtwf4          3
            prtwf5          3
            prtwf6          3
            rfdir1          0       0       0
            rfdir2          0       0       0
            rfdir3          0       0       0
            rfdir4          1       0       0
            rfdir5          0       1       0
            rfdir6          0       0       1
           rfelfd1          0
           rfelfd2          0
           rfelfd3          0
           rfelfd4          2
           rfelfd5          2
           rfelfd6          2
            rprim      1.0000000000E+00  0.0000000000E+00  0.0000000000E+00
                       0.0000000000E+00  1.0000000000E+00  0.0000000000E+00
                       0.0000000000E+00  0.0000000000E+00  7.5729970188E+00
           shiftk      5.00000000E-01  5.00000000E-01  5.00000000E-01
          spgroup          99
           symrel      1  0  0   0  1  0   0  0  1       1  0  0   0 -1  0   0  0  1
                      -1  0  0   0 -1  0   0  0  1      -1  0  0   0  1  0   0  0  1
                       0  1  0   1  0  0   0  0  1       0  1  0  -1  0  0   0  0  1
                       0 -1  0  -1  0  0   0  0  1       0 -1  0   1  0  0   0  0  1
            tnons      0.0000000  0.0000000  0.0000000     0.0000000  0.0000000  0.0000000
                      -0.0000000  0.0000000  0.0000000    -0.0000000  0.0000000  0.0000000
                       0.5000000  0.5000000  0.0000000     0.5000000  0.5000000  0.0000000
                       0.5000000  0.5000000  0.0000000     0.5000000  0.5000000  0.0000000
           tolwfr      1.00000000E-20
            typat      1  1  1  1  1  1  1  1  1  2  2  2  2  2  2  2  2  2
           vdw_xc           5
              wtk1       0.11111    0.22222    0.22222    0.11111    0.22222    0.11111
              wtk2       0.11111    0.22222    0.22222    0.11111    0.22222    0.11111
              wtk3       0.05556    0.05556    0.05556    0.05556    0.05556    0.05556
                         0.05556    0.05556    0.05556    0.05556    0.05556    0.05556
                         0.05556    0.05556    0.05556    0.05556    0.05556    0.05556
              wtk4       0.05556    0.05556    0.05556    0.05556    0.05556    0.05556
                         0.05556    0.05556    0.05556    0.05556    0.05556    0.05556
                         0.05556    0.05556    0.05556    0.05556    0.05556    0.05556
              wtk5       0.05556    0.05556    0.05556    0.05556    0.05556    0.05556
                         0.05556    0.05556    0.05556    0.05556    0.05556    0.05556
                         0.05556    0.05556    0.05556    0.05556    0.05556    0.05556
              wtk6       0.05556    0.05556    0.05556    0.05556    0.05556    0.05556
                         0.05556    0.05556    0.05556    0.05556    0.05556    0.05556
                         0.05556    0.05556    0.05556    0.05556    0.05556    0.05556
           xangst      2.0538509643E+00  0.0000000000E+00  4.6664532449E+00
                       0.0000000000E+00  2.0538509643E+00  7.4160863946E+00
                       2.0538509643E+00  0.0000000000E+00  1.0102197795E+01
                       0.0000000000E+00  2.0538509643E+00  1.2851830945E+01
                       2.0538509643E+00  0.0000000000E+00  1.5537911238E+01
                       0.0000000000E+00  2.0538509643E+00  1.8287544388E+01
                       2.0538509643E+00  0.0000000000E+00  2.0973655789E+01
                       0.0000000000E+00  2.0538509643E+00  2.3723288938E+01
                       2.0538509643E+00  0.0000000000E+00  2.6409369232E+01
                       0.0000000000E+00  2.0538509643E+00  4.6982452269E+00
                       2.0538509643E+00  0.0000000000E+00  7.3843255202E+00
                       0.0000000000E+00  2.0538509643E+00  1.0133958670E+01
                       2.0538509643E+00  0.0000000000E+00  1.2820070071E+01
                       0.0000000000E+00  2.0538509643E+00  1.5569703220E+01
                       2.0538509643E+00  0.0000000000E+00  1.8255783514E+01
                       0.0000000000E+00  2.0538509643E+00  2.1005416663E+01
                       2.0538509643E+00  0.0000000000E+00  2.3691528064E+01
                       0.0000000000E+00  2.0538509643E+00  2.6441161214E+01
            xcart      3.8812158402E+00  0.0000000000E+00  8.8183186449E+00
                       0.0000000000E+00  3.8812158402E+00  1.4014372264E+01
                       3.8812158402E+00  0.0000000000E+00  1.9090387174E+01
                       0.0000000000E+00  3.8812158402E+00  2.4286440792E+01
                       3.8812158402E+00  0.0000000000E+00  2.9362396918E+01
                       0.0000000000E+00  3.8812158402E+00  3.4558450536E+01
                       3.8812158402E+00  0.0000000000E+00  3.9634465446E+01
                       0.0000000000E+00  3.8812158402E+00  4.4830519065E+01
                       3.8812158402E+00  0.0000000000E+00  4.9906475190E+01
                       0.0000000000E+00  3.8812158402E+00  8.8783967840E+00
                       3.8812158402E+00  0.0000000000E+00  1.3954352909E+01
                       0.0000000000E+00  3.8812158402E+00  1.9150406528E+01
                       3.8812158402E+00  0.0000000000E+00  2.4226421438E+01
                       0.0000000000E+00  3.8812158402E+00  2.9422475057E+01
                       3.8812158402E+00  0.0000000000E+00  3.4498431182E+01
                       0.0000000000E+00  3.8812158402E+00  3.9694484801E+01
                       3.8812158402E+00  0.0000000000E+00  4.4770499711E+01
                       0.0000000000E+00  3.8812158402E+00  4.9966553329E+01
             xred      5.0000000000E-01  0.0000000000E+00  1.5001000000E-01
                       0.0000000000E+00  5.0000000000E-01  2.3840100000E-01
                       5.0000000000E-01  0.0000000000E+00  3.2475000000E-01
                       0.0000000000E+00  5.0000000000E-01  4.1314100000E-01
                       5.0000000000E-01  0.0000000000E+00  4.9948900000E-01
                       0.0000000000E+00  5.0000000000E-01  5.8788000000E-01
                       5.0000000000E-01  0.0000000000E+00  6.7422900000E-01
                       0.0000000000E+00  5.0000000000E-01  7.6262000000E-01
                       5.0000000000E-01  0.0000000000E+00  8.4896800000E-01
                       0.0000000000E+00  5.0000000000E-01  1.5103200000E-01
                       5.0000000000E-01  0.0000000000E+00  2.3738000000E-01
                       0.0000000000E+00  5.0000000000E-01  3.2577100000E-01
                       5.0000000000E-01  0.0000000000E+00  4.1212000000E-01
                       0.0000000000E+00  5.0000000000E-01  5.0051100000E-01
                       5.0000000000E-01  0.0000000000E+00  5.8685900000E-01
                       0.0000000000E+00  5.0000000000E-01  6.7525000000E-01
                       5.0000000000E-01  0.0000000000E+00  7.6159900000E-01
                       0.0000000000E+00  5.0000000000E-01  8.4999000000E-01
            znucl       50.00000   34.00000

================================================================================

 chkinp: Checking input parameters for consistency, jdtset=   1.

 chkinp: Checking input parameters for consistency, jdtset=   2.

 chkinp: Checking input parameters for consistency, jdtset=   3.

 chkinp: Checking input parameters for consistency, jdtset=   4.

 chkinp: Checking input parameters for consistency, jdtset=   5.

 chkinp: Checking input parameters for consistency, jdtset=   6.

================================================================================
== DATASET  1 ==================================================================
-   mpi_nproc: 6, omp_nthreads: -1 (-1 if OMP is not activated)


--- !DatasetInfo
iteration_state: {dtset: 1, }
dimensions: {natom: 18, nkpt: 6, mband: 138, nsppol: 1, nspinor: 1, nspden: 1, mpw: 18106, }
cutoff_energies: {ecut:  22.5, pawecutdg:  -1.0, }
electrons: {nelect:   2.70000000E+02, charge:   0.00000000E+00, occopt:   1.00000000E+00, tsmear:   1.00000000E-02, }
meta: {optdriver: 0, ionmov: 0, optcell: 0, iscf: 7, paral_kgb: 0, }
...

 Exchange-correlation functional for the present dataset will be:
  GGA: Perdew-Burke-Ernzerhof functional - ixc=11
 Citation for XC functional:
  J.P.Perdew, K.Burke, M.Ernzerhof, PRL 77, 3865 (1996)

 Real(R)+Recip(G) space primitive vectors, cartesian coordinates (Bohr,Bohr^-1):
 R(1)=  7.7624317  0.0000000  0.0000000  G(1)=  0.1288256  0.0000000  0.0000000
 R(2)=  0.0000000  7.7624317  0.0000000  G(2)=  0.0000000  0.1288256  0.0000000
 R(3)=  0.0000000  0.0000000 58.7848720  G(3)=  0.0000000  0.0000000  0.0170112
 Unit cell volume ucvol=  3.5421028E+03 bohr^3
 Angles (23,13,12)=  9.00000000E+01  9.00000000E+01  9.00000000E+01 degrees

 getcut: wavevector=  0.0000  0.0000  0.0000  ngfft=  36  36 256
         ecut(hartree)=     22.500   => boxcut(ratio)=   2.03947

--- Pseudopotential description ------------------------------------------------
- pspini: atom type   1  psp file is ../../../Psps_for_tests/ATOMICDATA_NC/Sn.psp8
- pspatm: opening atomic psp file    ../../../Psps_for_tests/ATOMICDATA_NC/Sn.psp8
- Sn    ONCVPSP  r_core=  2.27  2.62  1.86
- 50.00000  14.00000    150810                znucl, zion, pspdat
    8   11    2    4       600   0.00000      pspcod,pspxc,lmax,lloc,mmax,r2well
    5.99000000000000    6.50000000000000    0.00000000000000   rchrg,fchrg,qchrg
     nproj     2     2     2
     extension_switch     1
  pspatm : epsatm=   32.65190642
         --- l  ekb(1:nproj) -->
             0    5.462393    0.682281
             1    4.443814    0.825686
             2   -5.382195   -1.704077
 pspatm: atomic psp has been read  and splines computed

- pspini: atom type   2  psp file is ../../../Psps_for_tests/ATOMICDATA_NC/Se.psp8
- pspatm: opening atomic psp file    ../../../Psps_for_tests/ATOMICDATA_NC/Se.psp8
- Se    ONCVPSP  r_core=  1.82  1.50  1.91
- 34.00000  16.00000    150729                znucl, zion, pspdat
    8   11    2    4       600   0.00000      pspcod,pspxc,lmax,lloc,mmax,r2well
    5.99000000000000    5.00000000000000    0.00000000000000   rchrg,fchrg,qchrg
     nproj     2     2     2
     extension_switch     1
  pspatm : epsatm=   29.53325930
         --- l  ekb(1:nproj) -->
             0    8.612261    0.939919
             1    6.984962    1.281898
             2   -9.322521   -3.856218
 pspatm: atomic psp has been read  and splines computed

   1.51109953E+05                                ecore*ucvol(ha*bohr**3)
--------------------------------------------------------------------------------

_setup2: Arith. and geom. avg. npw (full set) are   18055.333   18055.323

================================================================================

--- !BeginCycle
iteration_state: {dtset: 1, }
solver: {iscf: 7, nstep: 400, nline: 4, wfoptalg: 0, }
tolerances: {tolwfr: 1.00E-20, }
...

     iter   Etot(hartree)      deltaE(h)  residm     vres2
 ETOT  1  -1755.1800871462    -1.755E+03 8.944E-01 5.377E+05
 ETOT  2  -1739.6837716536     1.550E+01 2.218E-02 9.490E+06
 ETOT  3  -1788.9042138817    -4.922E+01 1.073E-01 1.047E+05
 ETOT  4  -1790.1902814605    -1.286E+00 1.532E-02 2.106E+04
 ETOT  5  -1790.3806163257    -1.903E-01 3.648E-03 3.360E+03
 ETOT  6  -1790.4299305874    -4.931E-02 2.156E-03 5.447E+03
 ETOT  7  -1790.4286790896     1.251E-03 1.754E-03 7.161E+03
 ETOT  8  -1790.4327846246    -4.106E-03 6.237E-04 6.622E+03
 ETOT  9  -1790.4414610284    -8.676E-03 8.772E-04 4.963E+03
 ETOT 10  -1790.4317089961     9.752E-03 4.173E-04 6.970E+03
 ETOT 11  -1790.4269654491     4.744E-03 5.390E-04 8.207E+03
 ETOT 12  -1790.4362155379    -9.250E-03 1.116E-03 4.586E+03
 ETOT 13  -1790.4624414193    -2.623E-02 2.771E-04 3.581E+02
 ETOT 14  -1790.4645262798    -2.085E-03 2.051E-04 3.473E+01
 ETOT 15  -1790.4645953770    -6.910E-05 7.801E-05 2.620E+01
 ETOT 16  -1790.4638981439     6.972E-04 1.171E-04 1.878E+02
 ETOT 17  -1790.4640021407    -1.040E-04 6.926E-05 1.501E+02
 ETOT 18  -1790.4644783493    -4.762E-04 7.749E-05 5.620E+01
 ETOT 19  -1790.4646710127    -1.927E-04 4.825E-05 9.828E+00
 ETOT 20  -1790.4647076763    -3.666E-05 7.001E-05 8.207E-01
 ETOT 21  -1790.4647120949    -4.419E-06 4.093E-05 3.763E-01
 ETOT 22  -1790.4647140561    -1.961E-06 5.821E-05 1.239E-01
 ETOT 23  -1790.4647144894    -4.333E-07 3.245E-05 5.466E-03
 ETOT 24  -1790.4647145771    -8.766E-08 4.506E-05 7.095E-04
 ETOT 25  -1790.4647145819    -4.853E-09 2.607E-05 2.138E-04
 ETOT 26  -1790.4647145828    -9.381E-10 3.296E-05 4.056E-05
 ETOT 27  -1790.4647145834    -5.111E-10 2.309E-05 1.824E-05
 ETOT 28  -1790.4647145833     9.641E-11 2.317E-05 6.295E-07
 ETOT 29  -1790.4647145838    -5.141E-10 2.058E-05 1.660E-07
 ETOT 30  -1790.4647145838    -4.843E-11 1.586E-05 5.818E-08
 ETOT 31  -1790.4647145833     4.766E-10 1.838E-05 1.415E-08
 ETOT 32  -1790.4647145836    -2.542E-10 1.066E-05 8.528E-09
 ETOT 33  -1790.4647145834     2.069E-10 1.637E-05 1.935E-09
 ETOT 34  -1790.4647145837    -3.545E-10 9.412E-06 4.805E-10
 ETOT 35  -1790.4647145834     3.402E-10 1.449E-05 1.395E-10
 ETOT 36  -1790.4647145837    -2.919E-10 8.326E-06 1.946E-10
 ETOT 37  -1790.4647145838    -1.144E-10 1.274E-05 2.180E-11
 ETOT 38  -1790.4647145833     5.102E-10 7.308E-06 9.525E-12
 ETOT 39  -1790.4647145832     1.066E-10 1.111E-05 2.317E-12
 ETOT 40  -1790.4647145835    -3.031E-10 6.365E-06 3.080E-12
 ETOT 41  -1790.4647145834     5.525E-11 9.626E-06 4.049E-12
 ETOT 42  -1790.4647145835    -1.569E-11 5.503E-06 2.773E-14
 ETOT 43  -1790.4647145834     7.731E-11 8.282E-06 3.057E-14
 ETOT 44  -1790.4647145835    -1.605E-10 4.726E-06 9.087E-15
 ETOT 45  -1790.4647145832     3.333E-10 7.083E-06 1.431E-14
 ETOT 46  -1790.4647145834    -2.235E-10 4.035E-06 9.013E-15
 ETOT 47  -1790.4647145833     1.044E-10 6.027E-06 5.202E-15
 ETOT 48  -1790.4647145835    -1.332E-10 3.427E-06 2.466E-15
 ETOT 49  -1790.4647145835    -2.456E-11 5.106E-06 1.359E-15
 ETOT 50  -1790.4647145836    -6.889E-11 2.898E-06 8.339E-16
 ETOT 51  -1790.4647145835     8.117E-11 4.310E-06 5.791E-16
 ETOT 52  -1790.4647145835    -4.820E-11 2.443E-06 2.992E-16
 ETOT 53  -1790.4647145833     1.792E-10 3.627E-06 2.163E-16
 ETOT 54  -1790.4647145833     9.777E-12 2.053E-06 1.790E-16
 ETOT 55  -1790.4647145834    -1.751E-11 3.045E-06 1.388E-16
 ETOT 56  -1790.4647145834    -7.594E-11 1.721E-06 1.018E-16
 ETOT 57  -1790.4647145833     1.319E-10 2.552E-06 6.737E-17
 ETOT 58  -1790.4647145834    -6.298E-11 1.441E-06 5.693E-17
 ETOT 59  -1790.4647145834    -2.274E-13 2.136E-06 4.630E-17
 ETOT 60  -1790.4647145834    -2.956E-12 1.204E-06 4.064E-17
 ETOT 61  -1790.4647145834    -1.705E-11 1.786E-06 3.652E-17
 ETOT 62  -1790.4647145834     2.728E-11 1.006E-06 2.715E-17
 ETOT 63  -1790.4647145833     1.023E-11 1.492E-06 2.422E-17
 ETOT 64  -1790.4647145833     9.777E-12 8.394E-07 2.111E-17
 ETOT 65  -1790.4647145833     0.000E+00 1.246E-06 1.974E-17
 ETOT 66  -1790.4647145833    -5.912E-12 7.002E-07 1.848E-17
 ETOT 67  -1790.4647145833    -7.731E-12 1.040E-06 1.835E-17
 ETOT 68  -1790.4647145834    -1.478E-11 5.840E-07 1.644E-17
 ETOT 69  -1790.4647145834    -2.001E-11 8.682E-07 1.685E-17
 ETOT 70  -1790.4647145834    -1.410E-11 4.870E-07 1.561E-17
 ETOT 71  -1790.4647145834     4.547E-13 7.246E-07 1.396E-17
 ETOT 72  -1790.4647145834     5.684E-12 4.061E-07 1.249E-17
 ETOT 73  -1790.4647145834    -6.821E-12 6.049E-07 1.308E-17
 ETOT 74  -1790.4647145834     1.819E-12 3.387E-07 1.136E-17
 ETOT 75  -1790.4647145834    -9.550E-12 5.050E-07 1.028E-17
 ETOT 76  -1790.4647145834     6.139E-12 2.826E-07 1.072E-17
 ETOT 77  -1790.4647145834     2.274E-12 4.217E-07 8.912E-18
 ETOT 78  -1790.4647145834    -1.523E-11 2.358E-07 8.966E-18
 ETOT 79  -1790.4647145834     6.821E-13 3.522E-07 8.328E-18
 ETOT 80  -1790.4647145834    -3.183E-12 1.968E-07 8.505E-18
 ETOT 81  -1790.4647145834    -1.023E-11 2.943E-07 7.918E-18
 ETOT 82  -1790.4647145834    -4.320E-12 1.643E-07 6.870E-18
 ETOT 83  -1790.4647145834    -2.956E-12 2.459E-07 8.326E-18
 ETOT 84  -1790.4647145834     1.364E-12 1.372E-07 7.042E-18
 ETOT 85  -1790.4647145834    -1.819E-12 2.056E-07 7.128E-18
 ETOT 86  -1790.4647145834    -5.684E-12 1.146E-07 6.731E-18
 ETOT 87  -1790.4647145834    -3.183E-12 1.719E-07 6.156E-18
 ETOT 88  -1790.4647145834    -2.956E-12 9.579E-08 6.025E-18
 ETOT 89  -1790.4647145834    -1.137E-12 1.437E-07 5.364E-18
 ETOT 90  -1790.4647145834    -2.956E-12 8.006E-08 4.519E-18
 ETOT 91  -1790.4647145834     1.137E-12 1.202E-07 7.403E-18
 ETOT 92  -1790.4647145834    -4.547E-13 6.694E-08 5.821E-18
 ETOT 93  -1790.4647145834    -2.501E-12 1.006E-07 5.490E-18
 ETOT 94  -1790.4647145835    -5.230E-12 5.598E-08 4.556E-18
 ETOT 95  -1790.4647145835    -3.638E-12 8.418E-08 4.648E-18
 ETOT 96  -1790.4647145835     1.592E-12 4.683E-08 4.989E-18
 ETOT 97  -1790.4647145835    -2.956E-12 7.046E-08 4.392E-18
 ETOT 98  -1790.4647145835    -1.182E-11 3.918E-08 4.481E-18
 ETOT 99  -1790.4647145835    -5.684E-12 5.899E-08 5.311E-18
 ETOT  100  -1790.4647145835    -2.046E-12 3.279E-08 4.765E-18
 ETOT  101  -1790.4647145835    -2.046E-12 4.940E-08 4.983E-18
 ETOT  102  -1790.4647145835     1.819E-12 2.744E-08 4.151E-18
 ETOT  103  -1790.4647145835    -6.139E-12 4.137E-08 4.849E-18
 ETOT  104  -1790.4647145835     1.137E-12 2.298E-08 3.675E-18
 ETOT  105  -1790.4647145835    -4.775E-12 3.465E-08 4.461E-18
 ETOT  106  -1790.4647145835    -6.821E-13 1.924E-08 4.001E-18
 ETOT  107  -1790.4647145835     2.274E-12 2.903E-08 4.229E-18
 ETOT  108  -1790.4647145835    -4.547E-13 1.611E-08 3.533E-18
 ETOT  109  -1790.4647145835     5.912E-12 2.432E-08 3.331E-18
 ETOT  110  -1790.4647145835    -8.185E-12 1.349E-08 3.822E-18
 ETOT  111  -1790.4647145835    -4.547E-13 2.038E-08 3.969E-18
 ETOT  112  -1790.4647145835     1.364E-12 1.130E-08 3.783E-18
 ETOT  113  -1790.4647145835     4.093E-12 1.708E-08 3.426E-18
 ETOT  114  -1790.4647145835    -6.821E-12 9.471E-09 3.276E-18
 ETOT  115  -1790.4647145835     2.274E-12 1.432E-08 4.221E-18
 ETOT  116  -1790.4647145835    -5.684E-12 7.936E-09 3.992E-18
 ETOT  117  -1790.4647145835     6.139E-12 1.200E-08 3.404E-18
 ETOT  118  -1790.4647145835    -3.865E-12 6.650E-09 4.261E-18
 ETOT  119  -1790.4647145835     4.775E-12 1.006E-08 3.043E-18
 ETOT  120  -1790.4647145835    -1.364E-12 5.573E-09 4.519E-18
 ETOT  121  -1790.4647145835    -2.956E-12 8.433E-09 3.538E-18
 ETOT  122  -1790.4647145835     2.046E-12 4.671E-09 3.762E-18
 ETOT  123  -1790.4647145835    -4.775E-12 7.070E-09 2.762E-18
 ETOT  124  -1790.4647145835     7.503E-12 3.916E-09 3.202E-18
 ETOT  125  -1790.4647145835    -1.592E-12 5.928E-09 3.477E-18
 ETOT  126  -1790.4647145835     2.274E-12 3.282E-09 2.879E-18
 ETOT  127  -1790.4647145835    -2.046E-12 4.970E-09 2.997E-18
 ETOT  128  -1790.4647145835     6.366E-12 2.752E-09 3.808E-18
 ETOT  129  -1790.4647145835    -8.185E-12 4.168E-09 3.492E-18
 ETOT  130  -1790.4647145835     3.183E-12 2.307E-09 4.219E-18
 ETOT  131  -1790.4647145835    -1.592E-12 3.495E-09 2.437E-18
 ETOT  132  -1790.4647145835     5.684E-12 2.035E-09 3.313E-18
 ETOT  133  -1790.4647145835    -3.638E-12 2.931E-09 2.930E-18
 ETOT  134  -1790.4647145835    -2.728E-12 1.945E-09 3.916E-18
 ETOT  135  -1790.4647145835     3.183E-12 2.458E-09 2.983E-18
 ETOT  136  -1790.4647145835     2.274E-13 1.858E-09 4.084E-18
 ETOT  137  -1790.4647145835     4.320E-12 2.062E-09 3.104E-18
 ETOT  138  -1790.4647145835    -2.046E-12 1.776E-09 2.929E-18
 ETOT  139  -1790.4647145835    -4.320E-12 1.729E-09 3.089E-18
 ETOT  140  -1790.4647145835     3.865E-12 1.698E-09 3.331E-18
 ETOT  141  -1790.4647145835    -2.956E-12 1.620E-09 3.457E-18
 ETOT  142  -1790.4647145835    -2.956E-12 1.623E-09 3.559E-18
 ETOT  143  -1790.4647145835    -9.095E-13 1.550E-09 2.552E-18
 ETOT  144  -1790.4647145835     2.274E-13 1.552E-09 3.407E-18
 ETOT  145  -1790.4647145835     2.274E-12 1.483E-09 3.819E-18
 ETOT  146  -1790.4647145835    -4.320E-12 1.484E-09 3.063E-18
 ETOT  147  -1790.4647145835     2.956E-12 1.419E-09 3.034E-18
 ETOT  148  -1790.4647145835     3.183E-12 1.419E-09 2.658E-18
 ETOT  149  -1790.4647145835    -5.002E-12 1.358E-09 3.687E-18
 ETOT  150  -1790.4647145835     1.819E-12 1.357E-09 2.928E-18
 ETOT  151  -1790.4647145835    -6.821E-13 1.299E-09 3.261E-18
 ETOT  152  -1790.4647145835     2.501E-12 1.298E-09 3.183E-18
 ETOT  153  -1790.4647145835    -1.819E-12 1.243E-09 3.566E-18
 ETOT  154  -1790.4647145835    -9.095E-13 1.242E-09 3.058E-18
 ETOT  155  -1790.4647145835     0.000E+00 1.190E-09 3.246E-18
 ETOT  156  -1790.4647145835    -1.364E-12 1.188E-09 2.691E-18
 ETOT  157  -1790.4647145835     7.503E-12 1.139E-09 2.920E-18
 ETOT  158  -1790.4647145835    -1.160E-11 1.137E-09 3.202E-18
 ETOT  159  -1790.4647145835     7.731E-12 1.091E-09 3.530E-18
 ETOT  160  -1790.4647145835    -6.821E-12 1.088E-09 4.004E-18
 ETOT  161  -1790.4647145835     5.457E-12 1.044E-09 4.263E-18
 ETOT  162  -1790.4647145835    -5.002E-12 1.041E-09 4.265E-18
 ETOT  163  -1790.4647145835     5.457E-12 9.996E-10 4.329E-18
 ETOT  164  -1790.4647145835     2.274E-12 9.968E-10 2.467E-18
 ETOT  165  -1790.4647145835    -1.592E-12 9.571E-10 3.398E-18
 ETOT  166  -1790.4647145835    -3.865E-12 9.541E-10 3.805E-18
 ETOT  167  -1790.4647145835     6.366E-12 9.164E-10 3.367E-18
 ETOT  168  -1790.4647145835    -5.457E-12 9.134E-10 3.135E-18
 ETOT  169  -1790.4647145835     1.364E-12 8.776E-10 3.063E-18
 ETOT  170  -1790.4647145835    -1.592E-12 8.744E-10 4.345E-18
 ETOT  171  -1790.4647145835     2.501E-12 8.404E-10 3.262E-18
 ETOT  172  -1790.4647145835    -4.547E-13 8.372E-10 3.333E-18
 ETOT  173  -1790.4647145835    -2.274E-12 8.048E-10 4.099E-18
 ETOT  174  -1790.4647145835     2.274E-13 8.016E-10 3.060E-18
 ETOT  175  -1790.4647145835     1.592E-12 7.708E-10 3.160E-18
 ETOT  176  -1790.4647145835     4.093E-12 7.675E-10 3.286E-18
 ETOT  177  -1790.4647145835    -7.731E-12 7.383E-10 4.548E-18
 ETOT  178  -1790.4647145835     3.865E-12 7.350E-10 2.950E-18
 ETOT  179  -1790.4647145835    -1.137E-12 7.072E-10 4.307E-18
 ETOT  180  -1790.4647145835     5.912E-12 7.039E-10 3.679E-18
 ETOT  181  -1790.4647145835    -3.865E-12 6.774E-10 2.501E-18
 ETOT  182  -1790.4647145835    -1.137E-12 6.741E-10 3.374E-18
 ETOT  183  -1790.4647145835     4.547E-13 6.489E-10 3.889E-18
 ETOT  184  -1790.4647145835     0.000E+00 6.456E-10 3.480E-18
 ETOT  185  -1790.4647145835    -3.183E-12 6.216E-10 3.534E-18
 ETOT  186  -1790.4647145835    -1.819E-12 6.184E-10 3.831E-18
 ETOT  187  -1790.4647145835     4.320E-12 5.955E-10 3.651E-18
 ETOT  188  -1790.4647145835    -3.865E-12 5.923E-10 2.856E-18
 ETOT  189  -1790.4647145835     2.728E-12 5.705E-10 5.081E-18
 ETOT  190  -1790.4647145835     1.592E-12 5.674E-10 4.025E-18
 ETOT  191  -1790.4647145835    -4.320E-12 5.465E-10 4.009E-18
 ETOT  192  -1790.4647145835     6.366E-12 5.435E-10 3.945E-18
 ETOT  193  -1790.4647145835    -4.547E-12 5.236E-10 2.712E-18
 ETOT  194  -1790.4647145835     5.457E-12 5.207E-10 2.864E-18
 ETOT  195  -1790.4647145835    -6.594E-12 5.017E-10 3.223E-18
 ETOT  196  -1790.4647145835     4.320E-12 4.989E-10 3.433E-18
 ETOT  197  -1790.4647145835     3.183E-12 4.807E-10 4.051E-18
 ETOT  198  -1790.4647145835    -7.958E-12 4.779E-10 3.100E-18
 ETOT  199  -1790.4647145835     7.503E-12 4.606E-10 2.428E-18
 ETOT  200  -1790.4647145835    -3.183E-12 4.579E-10 3.308E-18
 ETOT  201  -1790.4647145835    -2.274E-12 4.413E-10 3.117E-18
 ETOT  202  -1790.4647145835     4.547E-13 4.388E-10 3.257E-18
 ETOT  203  -1790.4647145835    -1.364E-12 4.229E-10 2.564E-18
 ETOT  204  -1790.4647145835     5.684E-12 4.204E-10 3.592E-18
 ETOT  205  -1790.4647145835     6.821E-13 4.052E-10 3.128E-18
 ETOT  206  -1790.4647145835    -4.320E-12 4.028E-10 4.126E-18
 ETOT  207  -1790.4647145835     1.364E-12 3.883E-10 2.897E-18
 ETOT  208  -1790.4647145835     2.046E-12 3.860E-10 3.046E-18
 ETOT  209  -1790.4647145835    -1.364E-12 3.721E-10 3.106E-18
 ETOT  210  -1790.4647145835    -7.049E-12 3.699E-10 3.116E-18
 ETOT  211  -1790.4647145835     5.684E-12 3.566E-10 3.163E-18
 ETOT  212  -1790.4647145835     4.547E-13 3.545E-10 4.300E-18
 ETOT  213  -1790.4647145835    -3.865E-12 3.418E-10 3.811E-18
 ETOT  214  -1790.4647145835     2.046E-12 3.397E-10 3.681E-18
 ETOT  215  -1790.4647145835     2.501E-12 3.275E-10 3.201E-18
 ETOT  216  -1790.4647145835    -5.230E-12 3.255E-10 3.392E-18
 ETOT  217  -1790.4647145835     3.865E-12 3.139E-10 3.537E-18
 ETOT  218  -1790.4647145835    -4.320E-12 3.120E-10 3.119E-18
 ETOT  219  -1790.4647145835     5.457E-12 3.008E-10 3.727E-18
 ETOT  220  -1790.4647145835    -5.912E-12 2.990E-10 3.112E-18
 ETOT  221  -1790.4647145835     6.821E-13 2.883E-10 3.289E-18
 ETOT  222  -1790.4647145835     6.594E-12 2.866E-10 2.625E-18
 ETOT  223  -1790.4647145835    -4.320E-12 2.763E-10 3.374E-18
 ETOT  224  -1790.4647145835     3.865E-12 2.747E-10 3.277E-18
 ETOT  225  -1790.4647145835    -6.139E-12 2.648E-10 4.897E-18
 ETOT  226  -1790.4647145835    -1.819E-12 2.633E-10 2.752E-18
 ETOT  227  -1790.4647145835     5.230E-12 2.538E-10 3.242E-18
 ETOT  228  -1790.4647145835     4.547E-13 2.523E-10 3.431E-18
 ETOT  229  -1790.4647145835    -4.547E-13 2.433E-10 3.908E-18
 ETOT  230  -1790.4647145835     1.819E-12 2.419E-10 2.698E-18
 ETOT  231  -1790.4647145835    -6.821E-13 2.332E-10 3.210E-18
 ETOT  232  -1790.4647145835    -2.274E-13 2.318E-10 3.206E-18
 ETOT  233  -1790.4647145835    -6.821E-13 2.235E-10 2.968E-18
 ETOT  234  -1790.4647145835     1.819E-12 2.222E-10 3.259E-18
 ETOT  235  -1790.4647145835    -4.775E-12 2.142E-10 3.658E-18
 ETOT  236  -1790.4647145835     3.411E-12 2.130E-10 2.769E-18
 ETOT  237  -1790.4647145835     4.547E-12 2.053E-10 2.716E-18
 ETOT  238  -1790.4647145835    -9.095E-12 2.042E-10 3.087E-18
 ETOT  239  -1790.4647145835     4.093E-12 1.968E-10 4.776E-18
 ETOT  240  -1790.4647145835     2.728E-12 1.957E-10 4.624E-18
 ETOT  241  -1790.4647145835    -4.775E-12 1.886E-10 3.491E-18
 ETOT  242  -1790.4647145835     4.320E-12 1.876E-10 3.369E-18
 ETOT  243  -1790.4647145835    -2.501E-12 1.808E-10 3.239E-18
 ETOT  244  -1790.4647145835     9.095E-13 1.798E-10 3.728E-18
 ETOT  245  -1790.4647145835     1.137E-12 1.733E-10 3.017E-18
 ETOT  246  -1790.4647145835    -1.364E-12 1.724E-10 3.679E-18
 ETOT  247  -1790.4647145835     2.728E-12 1.661E-10 2.515E-18
 ETOT  248  -1790.4647145835    -4.320E-12 1.653E-10 3.484E-18
 ETOT  249  -1790.4647145835     4.320E-12 1.593E-10 2.528E-18
 ETOT  250  -1790.4647145835    -1.364E-12 1.584E-10 3.381E-18
 ETOT  251  -1790.4647145835    -6.821E-13 1.527E-10 2.545E-18
 ETOT  252  -1790.4647145835     1.137E-12 1.519E-10 3.801E-18
 ETOT  253  -1790.4647145835     2.046E-12 1.463E-10 3.215E-18
 ETOT  254  -1790.4647145835    -7.503E-12 1.456E-10 3.969E-18
 ETOT  255  -1790.4647145835     6.594E-12 1.403E-10 3.330E-18
 ETOT  256  -1790.4647145835    -4.547E-12 1.396E-10 2.519E-18
 ETOT  257  -1790.4647145835     1.137E-12 1.345E-10 3.574E-18
 ETOT  258  -1790.4647145835     1.364E-12 1.338E-10 3.000E-18
 ETOT  259  -1790.4647145835    -3.183E-12 1.289E-10 4.083E-18
 ETOT  260  -1790.4647145835     5.912E-12 1.283E-10 3.207E-18
 ETOT  261  -1790.4647145835    -1.592E-12 1.235E-10 3.546E-18
 ETOT  262  -1790.4647145835    -1.592E-12 1.230E-10 3.332E-18
 ETOT  263  -1790.4647145835     5.230E-12 1.184E-10 2.814E-18
 ETOT  264  -1790.4647145835    -9.095E-13 1.179E-10 3.267E-18
 ETOT  265  -1790.4647145835    -6.594E-12 1.135E-10 3.604E-18
 ETOT  266  -1790.4647145835     1.137E-12 1.130E-10 2.860E-18
 ETOT  267  -1790.4647145835     4.547E-12 1.088E-10 2.939E-18
 ETOT  268  -1790.4647145835     1.819E-12 1.084E-10 4.554E-18
 ETOT  269  -1790.4647145835    -4.320E-12 1.043E-10 3.989E-18
 ETOT  270  -1790.4647145835    -2.046E-12 1.039E-10 2.980E-18
 ETOT  271  -1790.4647145835    -4.547E-13 1.000E-10 2.466E-18
 ETOT  272  -1790.4647145835     3.183E-12 9.960E-11 3.473E-18
 ETOT  273  -1790.4647145835    -1.364E-12 9.587E-11 3.976E-18
 ETOT  274  -1790.4647145835     1.592E-12 9.549E-11 3.126E-18
 ETOT  275  -1790.4647145835    -1.592E-12 9.190E-11 3.366E-18
 ETOT  276  -1790.4647145835     1.364E-12 9.155E-11 3.355E-18
 ETOT  277  -1790.4647145835    -4.320E-12 8.810E-11 4.415E-18
 ETOT  278  -1790.4647145835    -2.956E-12 8.778E-11 3.077E-18
 ETOT  279  -1790.4647145835    -2.728E-12 8.446E-11 3.166E-18
 ETOT  280  -1790.4647145835     3.183E-12 8.416E-11 3.408E-18
 ETOT  281  -1790.4647145835     4.093E-12 8.096E-11 3.704E-18
 ETOT  282  -1790.4647145835     2.728E-12 8.068E-11 4.028E-18
 ETOT  283  -1790.4647145835    -5.457E-12 7.761E-11 3.975E-18
 ETOT  284  -1790.4647145835     3.411E-12 7.736E-11 3.194E-18
 ETOT  285  -1790.4647145835    -4.547E-12 7.440E-11 3.819E-18
 ETOT  286  -1790.4647145835     4.093E-12 7.417E-11 3.380E-18
 ETOT  287  -1790.4647145835     0.000E+00 7.133E-11 3.753E-18
 ETOT  288  -1790.4647145835     2.046E-12 7.111E-11 3.766E-18
 ETOT  289  -1790.4647145835    -3.638E-12 6.838E-11 3.115E-18
 ETOT  290  -1790.4647145835     1.819E-12 6.818E-11 2.882E-18
 ETOT  291  -1790.4647145835    -1.592E-12 6.555E-11 3.298E-18
 ETOT  292  -1790.4647145835     4.775E-12 6.537E-11 2.653E-18
 ETOT  293  -1790.4647145835     4.547E-13 6.284E-11 3.977E-18
 ETOT  294  -1790.4647145835    -4.547E-12 6.268E-11 2.611E-18
 ETOT  295  -1790.4647145835     3.411E-12 6.024E-11 2.648E-18
 ETOT  296  -1790.4647145835    -5.230E-12 6.009E-11 2.705E-18
 ETOT  297  -1790.4647145835     5.002E-12 5.775E-11 3.764E-18
 ETOT  298  -1790.4647145835    -2.956E-12 5.762E-11 3.011E-18
 ETOT  299  -1790.4647145835    -9.095E-13 5.536E-11 3.859E-18
 ETOT  300  -1790.4647145835     4.775E-12 5.524E-11 3.104E-18
 ETOT  301  -1790.4647145835    -3.865E-12 5.307E-11 3.775E-18
 ETOT  302  -1790.4647145835     2.956E-12 5.297E-11 3.177E-18
 ETOT  303  -1790.4647145835     1.137E-12 5.088E-11 3.866E-18
 ETOT  304  -1790.4647145835    -2.956E-12 5.079E-11 4.062E-18
 ETOT  305  -1790.4647145835     2.274E-12 4.878E-11 4.493E-18
 ETOT  306  -1790.4647145835    -9.095E-13 4.870E-11 3.323E-18
 ETOT  307  -1790.4647145835    -2.046E-12 4.676E-11 2.931E-18
 ETOT  308  -1790.4647145835    -2.274E-13 4.669E-11 3.679E-18
 ETOT  309  -1790.4647145835     4.547E-12 4.483E-11 3.863E-18
 ETOT  310  -1790.4647145835    -7.276E-12 4.477E-11 3.690E-18
 ETOT  311  -1790.4647145835     4.093E-12 4.298E-11 2.849E-18
 ETOT  312  -1790.4647145835    -1.364E-12 4.292E-11 3.117E-18
 ETOT  313  -1790.4647145835    -4.320E-12 4.120E-11 3.589E-18
 ETOT  314  -1790.4647145835     1.182E-11 4.116E-11 3.221E-18
 ETOT  315  -1790.4647145835    -8.185E-12 3.950E-11 5.242E-18
 ETOT  316  -1790.4647145835     2.501E-12 3.946E-11 3.615E-18
 ETOT  317  -1790.4647145835    -1.592E-12 3.786E-11 3.471E-18
 ETOT  318  -1790.4647145835    -6.821E-13 3.784E-11 3.305E-18
 ETOT  319  -1790.4647145835    -2.046E-12 3.630E-11 3.497E-18
 ETOT  320  -1790.4647145835     4.093E-12 3.628E-11 3.288E-18
 ETOT  321  -1790.4647145835    -2.274E-12 3.480E-11 3.607E-18
 ETOT  322  -1790.4647145835     0.000E+00 3.479E-11 3.136E-18
 ETOT  323  -1790.4647145835     4.320E-12 3.336E-11 3.087E-18
 ETOT  324  -1790.4647145835    -3.183E-12 3.336E-11 2.939E-18
 ETOT  325  -1790.4647145835     0.000E+00 3.198E-11 4.002E-18
 ETOT  326  -1790.4647145835     4.547E-13 3.198E-11 4.168E-18
 ETOT  327  -1790.4647145835    -5.912E-12 3.066E-11 2.736E-18
 ETOT  328  -1790.4647145835     1.023E-11 3.067E-11 2.822E-18
 ETOT  329  -1790.4647145835    -3.411E-12 2.939E-11 2.937E-18
 ETOT  330  -1790.4647145835    -9.095E-13 2.940E-11 2.958E-18
 ETOT  331  -1790.4647145835     2.274E-12 2.818E-11 2.799E-18
 ETOT  332  -1790.4647145835    -2.728E-12 2.819E-11 3.402E-18
 ETOT  333  -1790.4647145835     5.002E-12 2.702E-11 3.005E-18
 ETOT  334  -1790.4647145835    -1.137E-12 2.703E-11 2.974E-18
 ETOT  335  -1790.4647145835    -3.411E-12 2.590E-11 3.848E-18
 ETOT  336  -1790.4647145835    -7.731E-12 2.592E-11 5.051E-18
 ETOT  337  -1790.4647145835     1.205E-11 2.483E-11 2.851E-18
 ETOT  338  -1790.4647145835    -5.684E-12 2.486E-11 3.095E-18
 ETOT  339  -1790.4647145835    -1.819E-12 2.380E-11 3.418E-18
 ETOT  340  -1790.4647145835     4.093E-12 2.383E-11 3.028E-18
 ETOT  341  -1790.4647145835     0.000E+00 2.282E-11 3.712E-18
 ETOT  342  -1790.4647145835     1.592E-12 2.285E-11 3.091E-18
 ETOT  343  -1790.4647145835    -4.320E-12 2.188E-11 3.197E-18
 ETOT  344  -1790.4647145835     0.000E+00 2.191E-11 2.289E-18
 ETOT  345  -1790.4647145835     9.095E-13 2.097E-11 3.248E-18
 ETOT  346  -1790.4647145835    -4.547E-13 2.101E-11 3.450E-18
 ETOT  347  -1790.4647145835     0.000E+00 2.011E-11 2.669E-18
 ETOT  348  -1790.4647145835    -9.095E-13 2.015E-11 2.303E-18
 ETOT  349  -1790.4647145835    -1.364E-12 1.928E-11 2.522E-18
 ETOT  350  -1790.4647145835     7.503E-12 1.932E-11 3.316E-18
 ETOT  351  -1790.4647145835    -2.046E-12 1.848E-11 3.756E-18
 ETOT  352  -1790.4647145835     1.364E-12 1.852E-11 3.091E-18
 ETOT  353  -1790.4647145835     2.274E-13 1.772E-11 3.478E-18
 ETOT  354  -1790.4647145835    -1.819E-12 1.776E-11 2.708E-18
 ETOT  355  -1790.4647145835    -1.592E-12 1.699E-11 3.098E-18
 ETOT  356  -1790.4647145835    -2.274E-13 1.703E-11 3.019E-18
 ETOT  357  -1790.4647145835    -3.411E-12 1.628E-11 3.766E-18
 ETOT  358  -1790.4647145835    -9.095E-13 1.633E-11 3.583E-18
 ETOT  359  -1790.4647145835     2.728E-12 1.561E-11 4.509E-18
 ETOT  360  -1790.4647145835     0.000E+00 1.566E-11 3.926E-18
 ETOT  361  -1790.4647145835     7.049E-12 1.497E-11 2.880E-18
 ETOT  362  -1790.4647145835    -3.865E-12 1.502E-11 3.181E-18
 ETOT  363  -1790.4647145835     1.592E-12 1.435E-11 3.422E-18
 ETOT  364  -1790.4647145835     6.366E-12 1.440E-11 4.212E-18
 ETOT  365  -1790.4647145835    -6.821E-12 1.376E-11 2.801E-18
 ETOT  366  -1790.4647145835     3.183E-12 1.381E-11 3.109E-18
 ETOT  367  -1790.4647145835    -6.594E-12 1.319E-11 3.017E-18
 ETOT  368  -1790.4647145835     9.095E-13 1.324E-11 4.125E-18
 ETOT  369  -1790.4647145835    -4.547E-12 1.264E-11 3.681E-18
 ETOT  370  -1790.4647145835     0.000E+00 1.269E-11 3.976E-18
 ETOT  371  -1790.4647145835     3.638E-12 1.212E-11 2.926E-18
 ETOT  372  -1790.4647145835     2.274E-12 1.217E-11 3.767E-18
 ETOT  373  -1790.4647145835    -3.183E-12 1.162E-11 3.202E-18
 ETOT  374  -1790.4647145835     1.137E-12 1.167E-11 3.844E-18
 ETOT  375  -1790.4647145835     4.775E-12 1.114E-11 3.515E-18
 ETOT  376  -1790.4647145835    -2.956E-12 1.119E-11 3.850E-18
 ETOT  377  -1790.4647145835     8.640E-12 1.068E-11 3.770E-18
 ETOT  378  -1790.4647145835    -1.160E-11 1.073E-11 2.948E-18
 ETOT  379  -1790.4647145835     4.775E-12 1.024E-11 2.741E-18
 ETOT  380  -1790.4647145835     2.501E-12 1.029E-11 3.940E-18
 ETOT  381  -1790.4647145835    -2.728E-12 9.816E-12 3.186E-18
 ETOT  382  -1790.4647145835     0.000E+00 9.867E-12 3.600E-18
 ETOT  383  -1790.4647145835    -3.411E-12 9.411E-12 3.326E-18
 ETOT  384  -1790.4647145835     2.501E-12 9.461E-12 3.187E-18
 ETOT  385  -1790.4647145835     0.000E+00 9.022E-12 3.220E-18
 ETOT  386  -1790.4647145835     4.093E-12 9.072E-12 3.758E-18
 ETOT  387  -1790.4647145835    -2.274E-12 8.649E-12 4.112E-18
 ETOT  388  -1790.4647145835    -3.183E-12 8.699E-12 4.140E-18
 ETOT  389  -1790.4647145835     9.095E-13 8.292E-12 3.701E-18
 ETOT  390  -1790.4647145835    -3.638E-12 8.342E-12 3.154E-18
 ETOT  391  -1790.4647145835     4.775E-12 7.950E-12 3.701E-18
 ETOT  392  -1790.4647145835     1.819E-12 7.999E-12 3.126E-18
 ETOT  393  -1790.4647145835    -1.592E-12 7.621E-12 4.294E-18
 ETOT  394  -1790.4647145835    -1.364E-12 7.670E-12 3.180E-18
 ETOT  395  -1790.4647145835    -4.547E-13 7.307E-12 2.606E-18
 ETOT  396  -1790.4647145835     1.137E-12 7.355E-12 3.602E-18
 ETOT  397  -1790.4647145835     1.592E-12 7.005E-12 2.912E-18
 ETOT  398  -1790.4647145835     4.547E-13 7.052E-12 2.951E-18
 ETOT  399  -1790.4647145835     1.364E-12 6.716E-12 2.894E-18
 ETOT  400  -1790.4647145835    -1.364E-12 6.763E-12 2.894E-18

 Cartesian components of stress tensor (hartree/bohr^3)
  sigma(1 1)=  1.45391233E-02  sigma(3 2)=  0.00000000E+00
  sigma(2 2)=  1.45391233E-02  sigma(3 1)=  0.00000000E+00
  sigma(3 3)=  1.41945773E-02  sigma(2 1)=  0.00000000E+00


 scprqt:  WARNING -
  nstep=  400 was not enough SCF cycles to converge;
  maximum residual=  6.763E-12 exceeds tolwfr=  1.000E-20


--- !ResultsGS
iteration_state: {dtset: 1, }
comment   : Summary of ground state results
lattice_vectors:
- [  7.7624317,   0.0000000,   0.0000000, ]
- [  0.0000000,   7.7624317,   0.0000000, ]
- [  0.0000000,   0.0000000,  58.7848720, ]
lattice_lengths: [   7.76243,    7.76243,   58.78487, ]
lattice_angles: [ 90.000,  90.000,  90.000, ] # degrees, (23, 13, 12)
lattice_volume:   3.5421028E+03
convergence: {deltae: -1.364E-12, res2:  2.894E-18, residm:  6.763E-12, diffor: null, }
etotal    :  -1.79046471E+03
entropy   :   0.00000000E+00
fermie    :   1.71428335E-01
cartesian_stress_tensor: # hartree/bohr^3
- [  1.45391233E-02,   0.00000000E+00,   0.00000000E+00, ]
- [  0.00000000E+00,   1.45391233E-02,   0.00000000E+00, ]
- [  0.00000000E+00,   0.00000000E+00,   1.41945773E-02, ]
pressure_GPa:  -4.2438E+02
xred      :
- [  5.0000E-01,   0.0000E+00,   1.5001E-01, Sn]
- [  0.0000E+00,   5.0000E-01,   2.3840E-01, Sn]
- [  5.0000E-01,   0.0000E+00,   3.2475E-01, Sn]
- [  0.0000E+00,   5.0000E-01,   4.1314E-01, Sn]
- [  5.0000E-01,   0.0000E+00,   4.9949E-01, Sn]
- [  0.0000E+00,   5.0000E-01,   5.8788E-01, Sn]
- [  5.0000E-01,   0.0000E+00,   6.7423E-01, Sn]
- [  0.0000E+00,   5.0000E-01,   7.6262E-01, Sn]
- [  5.0000E-01,   0.0000E+00,   8.4897E-01, Sn]
- [  0.0000E+00,   5.0000E-01,   1.5103E-01, Se]
- [  5.0000E-01,   0.0000E+00,   2.3738E-01, Se]
- [  0.0000E+00,   5.0000E-01,   3.2577E-01, Se]
- [  5.0000E-01,   0.0000E+00,   4.1212E-01, Se]
- [  0.0000E+00,   5.0000E-01,   5.0051E-01, Se]
- [  5.0000E-01,   0.0000E+00,   5.8686E-01, Se]
- [  0.0000E+00,   5.0000E-01,   6.7525E-01, Se]
- [  5.0000E-01,   0.0000E+00,   7.6160E-01, Se]
- [  0.0000E+00,   5.0000E-01,   8.4999E-01, Se]
cartesian_forces: # hartree/bohr
- [ -0.00000000E+00,  -0.00000000E+00,  -1.34957367E-02, ]
- [ -0.00000000E+00,  -0.00000000E+00,  -1.37146883E-02, ]
- [ -0.00000000E+00,  -0.00000000E+00,   3.05254777E-03, ]
- [ -0.00000000E+00,  -0.00000000E+00,  -1.86625108E-03, ]
- [ -0.00000000E+00,  -0.00000000E+00,   1.20815520E-03, ]
- [ -0.00000000E+00,  -0.00000000E+00,   3.92397064E-04, ]
- [ -0.00000000E+00,  -0.00000000E+00,  -9.57884793E-04, ]
- [ -0.00000000E+00,  -0.00000000E+00,   1.15503377E-02, ]
- [ -0.00000000E+00,  -0.00000000E+00,   1.45573131E-02, ]
- [ -0.00000000E+00,  -0.00000000E+00,  -1.51072795E-02, ]
- [ -0.00000000E+00,  -0.00000000E+00,  -9.39856411E-03, ]
- [ -0.00000000E+00,  -0.00000000E+00,   1.59600795E-03, ]
- [ -0.00000000E+00,  -0.00000000E+00,   6.09201529E-04, ]
- [ -0.00000000E+00,  -0.00000000E+00,  -1.40342441E-03, ]
- [ -0.00000000E+00,  -0.00000000E+00,   2.66892154E-03, ]
- [ -0.00000000E+00,  -0.00000000E+00,  -4.69399080E-03, ]
- [ -0.00000000E+00,  -0.00000000E+00,   1.20918616E-02, ]
- [ -0.00000000E+00,  -0.00000000E+00,   1.29110763E-02, ]
force_length_stats: {min:   3.92397064E-04, max:   1.51072795E-02, mean:   6.73753553E-03, }
...

 Integrated electronic density in atomic spheres:
 ------------------------------------------------
 Atom  Sphere_radius  Integrated_density
    1        2.00000         10.53752361
    2        2.00000         10.57586703
    3        2.00000         10.58410076
    4        2.00000         10.59513629
    5        2.00000         10.58532438
    6        2.00000         10.56419041
    7        2.00000         10.56326233
    8        2.00000         10.59393868
    9        2.00000         10.54115211
   10        2.00000         13.28336825
   11        2.00000         13.33571476
   12        2.00000         13.30859318
   13        2.00000         13.30233456
   14        2.00000         13.33198787
   15        2.00000         13.33844766
   16        2.00000         13.33295355
   17        2.00000         13.31427537
   18        2.00000         13.27817170
================================================================================

 ----iterations are completed or convergence reached----

 Mean square residual over all n,k,spin=   81.673E-16; max=  67.625E-13
 reduced coordinates (array xred) for   18 atoms
       0.500000000000      0.000000000000      0.150010000000
       0.000000000000      0.500000000000      0.238401000000
       0.500000000000      0.000000000000      0.324750000000
       0.000000000000      0.500000000000      0.413141000000
       0.500000000000      0.000000000000      0.499489000000
       0.000000000000      0.500000000000      0.587880000000
       0.500000000000      0.000000000000      0.674229000000
       0.000000000000      0.500000000000      0.762620000000
       0.500000000000      0.000000000000      0.848968000000
       0.000000000000      0.500000000000      0.151032000000
       0.500000000000      0.000000000000      0.237380000000
       0.000000000000      0.500000000000      0.325771000000
       0.500000000000      0.000000000000      0.412120000000
       0.000000000000      0.500000000000      0.500511000000
       0.500000000000      0.000000000000      0.586859000000
       0.000000000000      0.500000000000      0.675250000000
       0.500000000000      0.000000000000      0.761599000000
       0.000000000000      0.500000000000      0.849990000000
 rms dE/dt=  2.9872E-01; max dE/dt=  8.8963E-01; dE/dt below (all hartree)
    1       0.000000000000      0.000000000000      0.794899310221
    2       0.000000000000      0.000000000000      0.807770355649
    3       0.000000000000      0.000000000000     -0.177889472883
    4       0.000000000000      0.000000000000      0.111261487558
    5       0.000000000000      0.000000000000     -0.069467091609
    6       0.000000000000      0.000000000000     -0.021512854171
    7       0.000000000000      0.000000000000      0.057863291965
    8       0.000000000000      0.000000000000     -0.677430968412
    9       0.000000000000      0.000000000000     -0.854195628925
   10       0.000000000000      0.000000000000      0.889633649466
   11       0.000000000000      0.000000000000      0.554047544692
   12       0.000000000000      0.000000000000     -0.092266965935
   13       0.000000000000      0.000000000000     -0.034257676868
   14       0.000000000000      0.000000000000      0.084054281107
   15       0.000000000000      0.000000000000     -0.155338054183
   16       0.000000000000      0.000000000000      0.277489805537
   17       0.000000000000      0.000000000000     -0.709264379169
   18       0.000000000000      0.000000000000     -0.757421807583

 cartesian coordinates (angstrom) at end:
    1      2.05385096425820     0.00000000000000     4.66645324494283
    2      0.00000000000000     2.05385096425820     7.41608639455779
    3      2.05385096425820     0.00000000000000    10.10219779544819
    4      0.00000000000000     2.05385096425820    12.85183094506315
    5      2.05385096425820     0.00000000000000    15.53791123833909
    6      0.00000000000000     2.05385096425820    18.28754438795406
    7      2.05385096425820     0.00000000000000    20.97365578884445
    8      0.00000000000000     2.05385096425820    23.72328893845942
    9      2.05385096425820     0.00000000000000    26.40936923173535
   10      0.00000000000000     2.05385096425820     4.69824522691957
   11      2.05385096425820     0.00000000000000     7.38432552019551
   12      0.00000000000000     2.05385096425820    10.13395866981047
   13      2.05385096425820     0.00000000000000    12.82007007070087
   14      0.00000000000000     2.05385096425820    15.56970322031584
   15      2.05385096425820     0.00000000000000    18.25578351359177
   16      0.00000000000000     2.05385096425820    21.00541666320674
   17      2.05385096425820     0.00000000000000    23.69152806409713
   18      0.00000000000000     2.05385096425820    26.44116121371211

 cartesian forces (hartree/bohr) at end:
    1     -0.00000000000000    -0.00000000000000    -0.01349573668448
    2     -0.00000000000000    -0.00000000000000    -0.01371468834663
    3     -0.00000000000000    -0.00000000000000     0.00305254777092
    4     -0.00000000000000    -0.00000000000000    -0.00186625107528
    5     -0.00000000000000    -0.00000000000000     0.00120815519791
    6     -0.00000000000000    -0.00000000000000     0.00039239706445
    7     -0.00000000000000    -0.00000000000000    -0.00095788479329
    8     -0.00000000000000    -0.00000000000000     0.01155033774224
    9     -0.00000000000000    -0.00000000000000     0.01455731308431
   10     -0.00000000000000    -0.00000000000000    -0.01510727951963
   11     -0.00000000000000    -0.00000000000000    -0.00939856410521
   12     -0.00000000000000    -0.00000000000000     0.00159600794914
   13     -0.00000000000000    -0.00000000000000     0.00060920152908
   14     -0.00000000000000    -0.00000000000000    -0.00140342440683
   15     -0.00000000000000    -0.00000000000000     0.00266892154290
   16     -0.00000000000000    -0.00000000000000    -0.00469399080486
   17     -0.00000000000000    -0.00000000000000     0.01209186160184
   18     -0.00000000000000    -0.00000000000000     0.01291107625344
 frms,max,avg= 5.0815606E-03 1.5107280E-02   0.000E+00  0.000E+00 -2.644E-05 h/b

 cartesian forces (eV/Angstrom) at end:
    1     -0.00000000000000    -0.00000000000000    -0.69397862461497
    2     -0.00000000000000    -0.00000000000000    -0.70523757082232
    3     -0.00000000000000    -0.00000000000000     0.15696830437341
    4     -0.00000000000000    -0.00000000000000    -0.09596648072582
    5     -0.00000000000000    -0.00000000000000     0.06212583293287
    6     -0.00000000000000    -0.00000000000000     0.02017786664440
    7     -0.00000000000000    -0.00000000000000    -0.04925641237148
    8     -0.00000000000000    -0.00000000000000     0.59394219727295
    9     -0.00000000000000    -0.00000000000000     0.74856707333050
   10     -0.00000000000000    -0.00000000000000    -0.77684748212086
   11     -0.00000000000000    -0.00000000000000    -0.48329355733439
   12     -0.00000000000000    -0.00000000000000     0.08207002161599
   13     -0.00000000000000    -0.00000000000000     0.03132639952522
   14     -0.00000000000000    -0.00000000000000    -0.07216697853369
   15     -0.00000000000000    -0.00000000000000     0.13724145223407
   16     -0.00000000000000    -0.00000000000000    -0.24137469179123
   17     -0.00000000000000    -0.00000000000000     0.62178847140134
   18     -0.00000000000000    -0.00000000000000     0.66391417898400
 frms,max,avg= 2.6130433E-01 7.7684748E-01   0.000E+00  0.000E+00 -1.359E-03 e/A
 length scales=  7.762431680422  7.762431680422  7.762431680422 bohr
              =  4.107701928516  4.107701928516  4.107701928516 angstroms
 prteigrs : about to open file Cs2TiI6o_DS1_EIG
 Fermi (or HOMO) energy (hartree) =   0.17143   Average Vxc (hartree)=  -0.33211
 Eigenvalues (hartree) for nkpt=   6  k points:
 kpt#   1, nband=138, wtk=  0.11111, kpt=  0.0833  0.0833  0.5000 (reduced coord)
  -1.65336   -1.65195   -1.65030   -1.64996   -1.64922   -1.64880   -1.64779   -1.64754
  -1.64725   -1.64724   -1.64644   -1.64628   -1.64594   -1.64590   -1.64552   -1.64541
  -1.64533   -1.64462   -1.64443   -1.64441   -1.64420   -1.64360   -1.64347   -1.64318
  -1.64283   -1.64272   -1.64236   -1.64187   -1.64162   -1.64099   -1.64005   -1.63802
  -1.63791   -1.63753   -1.63589   -1.62250   -1.62197   -1.62188   -1.62062   -1.61968
  -1.61916   -1.61862   -1.61801   -1.61695   -1.61694   -0.64426   -0.64383   -0.64356
  -0.64290   -0.64258   -0.64246   -0.64222   -0.64205   -0.64191   -0.64169   -0.64166
  -0.64131   -0.64128   -0.64105   -0.64103   -0.64072   -0.64057   -0.64055   -0.64043
  -0.64030   -0.64022   -0.63924   -0.63923   -0.63900   -0.63899   -0.63580   -0.63543
[...]
                       2.000000  2.000000  2.000000  2.000000  2.000000  2.000000
                       2.000000  2.000000  2.000000  2.000000  2.000000  2.000000
                       2.000000  2.000000  2.000000  2.000000  2.000000  2.000000
                       2.000000  2.000000  2.000000  2.000000  2.000000  2.000000
                       2.000000  2.000000  2.000000  2.000000  2.000000  2.000000
                       2.000000  2.000000  2.000000  0.000000  0.000000  0.000000
                       0.000000  0.000000  0.000000  0.000000  0.000000  0.000000
                       0.000000  0.000000  0.000000  0.000000  0.000000  0.000000
                       0.000000  0.000000  0.000000  0.000000  0.000000  0.000000
                       0.000000  0.000000  0.000000  0.000000  0.000000  0.000000
                       0.000000  0.000000  0.000000  0.000000  0.000000  0.000000
                       0.000000  0.000000  0.000000  0.000000  0.000000  0.000000
                       0.000000  0.000000  0.000000  0.000000  0.000000  0.000000
                       0.000000  0.000000  0.000000  0.000000  0.000000  0.000000
                       0.000000  0.000000  0.000000  0.000000  0.000000  0.000000
                       0.000000  0.000000  0.000000  0.000000  0.000000  0.000000
                       0.000000  0.000000  0.000000  0.000000  0.000000  0.000000
                       0.000000  0.000000  0.000000  0.000000  0.000000  0.000000
                       0.000000  0.000000  0.000000  0.000000  0.000000  0.000000
                       0.000000  0.000000  0.000000  0.000000  0.000000  0.000000
                       0.000000  0.000000  0.000000  0.000000  0.000000  0.000000
                       0.000000  0.000000  0.000000  0.000000  0.000000  0.000000
                       0.000000  0.000000  0.000000  0.000000  0.000000  0.000000
                       0.000000  0.000000  0.000000  0.000000  0.000000  0.000000
                       0.000000  0.000000  0.000000  0.000000  0.000000  0.000000
                       0.000000  0.000000  0.000000  0.000000  0.000000  0.000000
                       0.000000  0.000000  0.000000  0.000000  0.000000  0.000000
                       0.000000  0.000000  0.000000  0.000000  0.000000  0.000000
                       0.000000  0.000000  0.000000  0.000000  0.000000  0.000000
                       0.000000  0.000000  0.000000  0.000000  0.000000  0.000000
                       0.000000  0.000000  0.000000  0.000000  0.000000  0.000000
                       0.000000  0.000000  0.000000  0.000000  0.000000  0.000000
                       0.000000  0.000000  0.000000  0.000000  0.000000  0.000000
              occ6     2.000000  2.000000  2.000000  2.000000  2.000000  2.000000
                       2.000000  2.000000  2.000000  2.000000  2.000000  2.000000
                       2.000000  2.000000  2.000000  2.000000  2.000000  2.000000
                       2.000000  2.000000  2.000000  2.000000  2.000000  2.000000
                       2.000000  2.000000  2.000000  2.000000  2.000000  2.000000
                       2.000000  2.000000  2.000000  2.000000  2.000000  2.000000
                       2.000000  2.000000  2.000000  2.000000  2.000000  2.000000
                       2.000000  2.000000  2.000000  2.000000  2.000000  2.000000
                       2.000000  2.000000  2.000000  2.000000  2.000000  2.000000
                       2.000000  2.000000  2.000000  2.000000  2.000000  2.000000
                       2.000000  2.000000  2.000000  2.000000  2.000000  2.000000
                       2.000000  2.000000  2.000000  2.000000  2.000000  2.000000
                       2.000000  2.000000  2.000000  2.000000  2.000000  2.000000
                       2.000000  2.000000  2.000000  2.000000  2.000000  2.000000
                       2.000000  2.000000  2.000000  2.000000  2.000000  2.000000
                       2.000000  2.000000  2.000000  2.000000  2.000000  2.000000
                       2.000000  2.000000  2.000000  2.000000  2.000000  2.000000
                       2.000000  2.000000  2.000000  2.000000  2.000000  2.000000
                       2.000000  2.000000  2.000000  2.000000  2.000000  2.000000
                       2.000000  2.000000  2.000000  2.000000  2.000000  2.000000
                       2.000000  2.000000  2.000000  2.000000  2.000000  2.000000
                       2.000000  2.000000  2.000000  2.000000  2.000000  2.000000
                       2.000000  2.000000  2.000000  0.000000  0.000000  0.000000
                       0.000000  0.000000  0.000000  0.000000  0.000000  0.000000
                       0.000000  0.000000  0.000000  0.000000  0.000000  0.000000
                       0.000000  0.000000  0.000000  0.000000  0.000000  0.000000
                       0.000000  0.000000  0.000000  0.000000  0.000000  0.000000
                       0.000000  0.000000  0.000000  0.000000  0.000000  0.000000
                       0.000000  0.000000  0.000000  0.000000  0.000000  0.000000
                       0.000000  0.000000  0.000000  0.000000  0.000000  0.000000
                       0.000000  0.000000  0.000000  0.000000  0.000000  0.000000
                       0.000000  0.000000  0.000000  0.000000  0.000000  0.000000
                       0.000000  0.000000  0.000000  0.000000  0.000000  0.000000
                       0.000000  0.000000  0.000000  0.000000  0.000000  0.000000
                       0.000000  0.000000  0.000000  0.000000  0.000000  0.000000
                       0.000000  0.000000  0.000000  0.000000  0.000000  0.000000
                       0.000000  0.000000  0.000000  0.000000  0.000000  0.000000
                       0.000000  0.000000  0.000000  0.000000  0.000000  0.000000
                       0.000000  0.000000  0.000000  0.000000  0.000000  0.000000
                       0.000000  0.000000  0.000000  0.000000  0.000000  0.000000
                       0.000000  0.000000  0.000000  0.000000  0.000000  0.000000
                       0.000000  0.000000  0.000000  0.000000  0.000000  0.000000
                       0.000000  0.000000  0.000000  0.000000  0.000000  0.000000
                       0.000000  0.000000  0.000000  0.000000  0.000000  0.000000
                       0.000000  0.000000  0.000000  0.000000  0.000000  0.000000
                       0.000000  0.000000  0.000000  0.000000  0.000000  0.000000
                       0.000000  0.000000  0.000000  0.000000  0.000000  0.000000
                       0.000000  0.000000  0.000000  0.000000  0.000000  0.000000
                       0.000000  0.000000  0.000000  0.000000  0.000000  0.000000
                       0.000000  0.000000  0.000000  0.000000  0.000000  0.000000
        optdriver1          0
        optdriver2          0
        optdriver3          0
        optdriver4          1
        optdriver5          1
        optdriver6          1
            prtwf1          1
            prtwf2          1
            prtwf3          1
            prtwf4          3
            prtwf5          3
            prtwf6          3
            rfdir1          0       0       0
            rfdir2          0       0       0
            rfdir3          0       0       0
            rfdir4          1       0       0
            rfdir5          0       1       0
            rfdir6          0       0       1
           rfelfd1          0
           rfelfd2          0
           rfelfd3          0
           rfelfd4          2
           rfelfd5          2
           rfelfd6          2
            rprim      1.0000000000E+00  0.0000000000E+00  0.0000000000E+00
                       0.0000000000E+00  1.0000000000E+00  0.0000000000E+00
                       0.0000000000E+00  0.0000000000E+00  7.5729970188E+00
           shiftk      5.00000000E-01  5.00000000E-01  5.00000000E-01
          spgroup          99
           strten1     1.4539123338E-02  1.4539123338E-02  1.4194577300E-02
                       0.0000000000E+00  0.0000000000E+00  0.0000000000E+00
           symrel      1  0  0   0  1  0   0  0  1       1  0  0   0 -1  0   0  0  1
                      -1  0  0   0 -1  0   0  0  1      -1  0  0   0  1  0   0  0  1
                       0  1  0   1  0  0   0  0  1       0  1  0  -1  0  0   0  0  1
                       0 -1  0  -1  0  0   0  0  1       0 -1  0   1  0  0   0  0  1
            tnons      0.0000000  0.0000000  0.0000000     0.0000000  0.0000000  0.0000000
                      -0.0000000  0.0000000  0.0000000    -0.0000000  0.0000000  0.0000000
                       0.5000000  0.5000000  0.0000000     0.5000000  0.5000000  0.0000000
                       0.5000000  0.5000000  0.0000000     0.5000000  0.5000000  0.0000000
           tolwfr      1.00000000E-20
            typat      1  1  1  1  1  1  1  1  1  2  2  2  2  2  2  2  2  2
           vdw_xc           5
              wtk1       0.11111    0.22222    0.22222    0.11111    0.22222    0.11111
              wtk2       0.11111    0.22222    0.22222    0.11111    0.22222    0.11111
              wtk3       0.05556    0.05556    0.05556    0.05556    0.05556    0.05556
                         0.05556    0.05556    0.05556    0.05556    0.05556    0.05556
                         0.05556    0.05556    0.05556    0.05556    0.05556    0.05556
              wtk4       0.05556    0.05556    0.05556    0.05556    0.05556    0.05556
                         0.05556    0.05556    0.05556    0.05556    0.05556    0.05556
                         0.05556    0.05556    0.05556    0.05556    0.05556    0.05556
              wtk5       0.05556    0.05556    0.05556    0.05556    0.05556    0.05556
                         0.05556    0.05556    0.05556    0.05556    0.05556    0.05556
                         0.05556    0.05556    0.05556    0.05556    0.05556    0.05556
              wtk6       0.05556    0.05556    0.05556    0.05556    0.05556    0.05556
                         0.05556    0.05556    0.05556    0.05556    0.05556    0.05556
                         0.05556    0.05556    0.05556    0.05556    0.05556    0.05556
           xangst      2.0538509643E+00  0.0000000000E+00  4.6664532449E+00
                       0.0000000000E+00  2.0538509643E+00  7.4160863946E+00
                       2.0538509643E+00  0.0000000000E+00  1.0102197795E+01
                       0.0000000000E+00  2.0538509643E+00  1.2851830945E+01
                       2.0538509643E+00  0.0000000000E+00  1.5537911238E+01
                       0.0000000000E+00  2.0538509643E+00  1.8287544388E+01
                       2.0538509643E+00  0.0000000000E+00  2.0973655789E+01
                       0.0000000000E+00  2.0538509643E+00  2.3723288938E+01
                       2.0538509643E+00  0.0000000000E+00  2.6409369232E+01
                       0.0000000000E+00  2.0538509643E+00  4.6982452269E+00
                       2.0538509643E+00  0.0000000000E+00  7.3843255202E+00
                       0.0000000000E+00  2.0538509643E+00  1.0133958670E+01
                       2.0538509643E+00  0.0000000000E+00  1.2820070071E+01
                       0.0000000000E+00  2.0538509643E+00  1.5569703220E+01
                       2.0538509643E+00  0.0000000000E+00  1.8255783514E+01
                       0.0000000000E+00  2.0538509643E+00  2.1005416663E+01
                       2.0538509643E+00  0.0000000000E+00  2.3691528064E+01
                       0.0000000000E+00  2.0538509643E+00  2.6441161214E+01
            xcart      3.8812158402E+00  0.0000000000E+00  8.8183186449E+00
                       0.0000000000E+00  3.8812158402E+00  1.4014372264E+01
                       3.8812158402E+00  0.0000000000E+00  1.9090387174E+01
                       0.0000000000E+00  3.8812158402E+00  2.4286440792E+01
                       3.8812158402E+00  0.0000000000E+00  2.9362396918E+01
                       0.0000000000E+00  3.8812158402E+00  3.4558450536E+01
                       3.8812158402E+00  0.0000000000E+00  3.9634465446E+01
                       0.0000000000E+00  3.8812158402E+00  4.4830519065E+01
                       3.8812158402E+00  0.0000000000E+00  4.9906475190E+01
                       0.0000000000E+00  3.8812158402E+00  8.8783967840E+00
                       3.8812158402E+00  0.0000000000E+00  1.3954352909E+01
                       0.0000000000E+00  3.8812158402E+00  1.9150406528E+01
                       3.8812158402E+00  0.0000000000E+00  2.4226421438E+01
                       0.0000000000E+00  3.8812158402E+00  2.9422475057E+01
                       3.8812158402E+00  0.0000000000E+00  3.4498431182E+01
                       0.0000000000E+00  3.8812158402E+00  3.9694484801E+01
                       3.8812158402E+00  0.0000000000E+00  4.4770499711E+01
                       0.0000000000E+00  3.8812158402E+00  4.9966553329E+01
             xred      5.0000000000E-01  0.0000000000E+00  1.5001000000E-01
                       0.0000000000E+00  5.0000000000E-01  2.3840100000E-01
                       5.0000000000E-01  0.0000000000E+00  3.2475000000E-01
                       0.0000000000E+00  5.0000000000E-01  4.1314100000E-01
                       5.0000000000E-01  0.0000000000E+00  4.9948900000E-01
                       0.0000000000E+00  5.0000000000E-01  5.8788000000E-01
                       5.0000000000E-01  0.0000000000E+00  6.7422900000E-01
                       0.0000000000E+00  5.0000000000E-01  7.6262000000E-01
                       5.0000000000E-01  0.0000000000E+00  8.4896800000E-01
                       0.0000000000E+00  5.0000000000E-01  1.5103200000E-01
                       5.0000000000E-01  0.0000000000E+00  2.3738000000E-01
                       0.0000000000E+00  5.0000000000E-01  3.2577100000E-01
                       5.0000000000E-01  0.0000000000E+00  4.1212000000E-01
                       0.0000000000E+00  5.0000000000E-01  5.0051100000E-01
                       5.0000000000E-01  0.0000000000E+00  5.8685900000E-01
                       0.0000000000E+00  5.0000000000E-01  6.7525000000E-01
                       5.0000000000E-01  0.0000000000E+00  7.6159900000E-01
                       0.0000000000E+00  5.0000000000E-01  8.4999000000E-01
            znucl       50.00000   34.00000

================================================================================


- Timing analysis has been suppressed with timopt=0



================================================================================

 Suggested references for the acknowledgment of ABINIT usage.

 The users of ABINIT have little formal obligations with respect to the ABINIT group
 (those specified in the GNU General Public License, http://www.gnu.org/copyleft/gpl.txt).
 However, it is common practice in the scientific literature,
 to acknowledge the efforts of people that have made the research possible.
 In this spirit, please find below suggested citations of work written by ABINIT developers,
 corresponding to implementations inside of ABINIT that you have used in the present run.
 Note also that it will be of great value to readers of publications presenting these results,
 to read papers enabling them to understand the theoretical formalism and details
 of the ABINIT implementation.
 For information on why they are suggested, see also https://docs.abinit.org/theory/acknowledgments.
-
- [1] The Abinit project: Impact, environment and recent developments.
- Computer Phys. Comm. 248, 107042 (2020).
- X.Gonze, B. Amadon, G. Antonius, F.Arnardi, L.Baguet, J.-M.Beuken,
- J.Bieder, F.Bottin, J.Bouchet, E.Bousquet, N.Brouwer, F.Bruneval,
- G.Brunin, T.Cavignac, J.-B. Charraud, Wei Chen, M.Cote, S.Cottenier,
- J.Denier, G.Geneste, Ph.Ghosez, M.Giantomassi, Y.Gillet, O.Gingras,
- D.R.Hamann, G.Hautier, Xu He, N.Helbig, N.Holzwarth, Y.Jia, F.Jollet,
- W.Lafargue-Dit-Hauret, K.Lejaeghere, M.A.L.Marques, A.Martin, C.Martins,
- H.P.C. Miranda, F.Naccarato, K. Persson, G.Petretto, V.Planes, Y.Pouillon,
- S.Prokhorenko, F.Ricci, G.-M.Rignanese, A.H.Romero, M.M.Schmitt, M.Torrent,
- M.J.van Setten, B.Van Troeye, M.J.Verstraete, G.Zerah and J.W.Zwanzig
- Comment: the fifth generic paper describing the ABINIT project.
- Note that a version of this paper, that is not formatted for Computer Phys. Comm. 
- is available at https://www.abinit.org/sites/default/files/ABINIT20.pdf .
- The licence allows the authors to put it on the Web.
- DOI and bibtex: see https://docs.abinit.org/theory/bibliography/#gonze2020
-
- [2] First-principles responses of solids to atomic displacements and homogeneous electric fields:,
- implementation of a conjugate-gradient algorithm. X. Gonze, Phys. Rev. B55, 10337 (1997).
- Comment: Non-vanishing rfphon and/or rfelfd, in the norm-conserving case.
- DOI and bibtex: see https://docs.abinit.org/theory/bibliography/#gonze1997
-
- [3] Dynamical matrices, Born effective charges, dielectric permittivity tensors, and ,
- interatomic force constants from density-functional perturbation theory,
- X. Gonze and C. Lee, Phys. Rev. B55, 10355 (1997).
- Comment: Non-vanishing rfphon and/or rfelfd, in the norm-conserving case.
- DOI and bibtex: see https://docs.abinit.org/theory/bibliography/#gonze1997a
-
- [4] Optimized norm-conserving Vanderbilt pseudopotentials.
- D.R. Hamann, Phys. Rev. B 88, 085117 (2013).
- Comment: Some pseudopotential generated using the ONCVPSP code were used.
- DOI and bibtex: see https://docs.abinit.org/theory/bibliography/#hamann2013
-
- [5] ABINIT: Overview, and focus on selected capabilities
- J. Chem. Phys. 152, 124102 (2020).
- A. Romero, D.C. Allan, B. Amadon, G. Antonius, T. Applencourt, L.Baguet,
- J.Bieder, F.Bottin, J.Bouchet, E.Bousquet, F.Bruneval,
- G.Brunin, D.Caliste, M.Cote,
- J.Denier, C. Dreyer, Ph.Ghosez, M.Giantomassi, Y.Gillet, O.Gingras,
- D.R.Hamann, G.Hautier, F.Jollet, G. Jomard,
- A.Martin, 
- H.P.C. Miranda, F.Naccarato, G.Petretto, N.A. Pike, V.Planes,
- S.Prokhorenko, T. Rangel, F.Ricci, G.-M.Rignanese, M.Royo, M.Stengel, M.Torrent,
- M.J.van Setten, B.Van Troeye, M.J.Verstraete, J.Wiktor, J.W.Zwanziger, and X.Gonze.
- Comment: a global overview of ABINIT, with focus on selected capabilities .
- Note that a version of this paper, that is not formatted for J. Chem. Phys 
- is available at https://www.abinit.org/sites/default/files/ABINIT20_JPC.pdf .
- The licence allows the authors to put it on the Web.
- DOI and bibtex: see https://docs.abinit.org/theory/bibliography/#romero2020
-
- [6] Recent developments in the ABINIT software package.
- Computer Phys. Comm. 205, 106 (2016).
- X.Gonze, F.Jollet, F.Abreu Araujo, D.Adams, B.Amadon, T.Applencourt,
- C.Audouze, J.-M.Beuken, J.Bieder, A.Bokhanchuk, E.Bousquet, F.Bruneval
- D.Caliste, M.Cote, F.Dahm, F.Da Pieve, M.Delaveau, M.Di Gennaro,
- B.Dorado, C.Espejo, G.Geneste, L.Genovese, A.Gerossier, M.Giantomassi,
- Y.Gillet, D.R.Hamann, L.He, G.Jomard, J.Laflamme Janssen, S.Le Roux,
- A.Levitt, A.Lherbier, F.Liu, I.Lukacevic, A.Martin, C.Martins,
- M.J.T.Oliveira, S.Ponce, Y.Pouillon, T.Rangel, G.-M.Rignanese,
- A.H.Romero, B.Rousseau, O.Rubel, A.A.Shukri, M.Stankovski, M.Torrent,
- M.J.Van Setten, B.Van Troeye, M.J.Verstraete, D.Waroquier, J.Wiktor,
- B.Xu, A.Zhou, J.W.Zwanziger.
- Comment: the fourth generic paper describing the ABINIT project.
- Note that a version of this paper, that is not formatted for Computer Phys. Comm. 
- is available at https://www.abinit.org/sites/default/files/ABINIT16.pdf .
- The licence allows the authors to put it on the Web.
- DOI and bibtex: see https://docs.abinit.org/theory/bibliography/#gonze2016
-
- Proc.   0 individual time (sec): cpu=      11607.1  wall=      11607.5

================================================================================

 Calculation completed.
.Delivered   8 WARNINGs and   0 COMMENTs to log file.
+Overall time at end (sec) : cpu=      69642.6  wall=      69644.6
