
.Version 9.2.2 of ABINIT 
.(MPI version, prepared for a x86_64_linux_gnu9.3 computer) 

.Copyright (C) 1998-2020 ABINIT group . 
 ABINIT comes with ABSOLUTELY NO WARRANTY.
 It is free software, and you are welcome to redistribute it
 under certain conditions (GNU General Public License,
 see ~abinit/COPYING or http://www.gnu.org/copyleft/gpl.txt).

 ABINIT is a project of the Universite Catholique de Louvain,
 Corning Inc. and other collaborators, see ~abinit/doc/developers/contributors.txt .
 Please read https://docs.abinit.org/theory/acknowledgments for suggested
 acknowledgments of the ABINIT effort.
 For more information, see https://www.abinit.org .

.Starting date : Sat 24 Feb 2024.
- ( at 13h53 )
  
- The starting date is more than 3 years after the initial release
- of this version of ABINIT, namely Nov 2020.
- This version of ABINIT is not supported anymore.
- Action: please, switch to a more recent version of ABINIT.
- input  file    -> Cs2TiI6.in
- output file    -> Cs2TiI6.out
- root for input  files -> Cs2TiI6i
- root for output files -> Cs2TiI6o


 DATASET    1 : space group P4/n m m (#129); Bravais tP (primitive tetrag.)
================================================================================
 Values of the parameters that define the memory need for DATASET  1.
     intxc =       0    ionmov =       0      iscf =       7    lmnmax =       6
     lnmax =       6     mgfft =     100  mpssoang =       3    mqgrid =    4876
     natom =       4  nloc_mem =       1    nspden =       1   nspinor =       1
    nsppol =       1      nsym =      16    n1xccc =    2501    ntypat =       2
    occopt =       1   xclevel =       2
-    mband =          31        mffmem =           1         mkmem =           7
       mpw =        7039          nfft =      129600          nkpt =          42
================================================================================
P This job should need less than                      67.172 Mbytes of memory.
  Rough estimation (10% accuracy) of disk space for files :
_ WF disk file :    139.845 Mbytes ; DEN or POT disk file :      0.991 Mbytes.
================================================================================


 DATASET    2 : space group P4/n m m (#129); Bravais tP (primitive tetrag.)
================================================================================
 Values of the parameters that define the memory need for DATASET  2.
     intxc =       0    ionmov =       0      iscf =      -2    lmnmax =       6
     lnmax =       6     mgfft =     100  mpssoang =       3    mqgrid =    4876
     natom =       4  nloc_mem =       1    nspden =       1   nspinor =       1
    nsppol =       1      nsym =      16    n1xccc =    2501    ntypat =       2
    occopt =       1   xclevel =       2
-    mband =         100        mffmem =           1         mkmem =           7
       mpw =        7039          nfft =      129600          nkpt =          42
================================================================================
P This job should need less than                     102.307 Mbytes of memory.
  Rough estimation (10% accuracy) of disk space for files :
_ WF disk file :    451.110 Mbytes ; DEN or POT disk file :      0.991 Mbytes.
================================================================================


 DATASET    3 : space group P4/n m m (#129); Bravais tP (primitive tetrag.)
================================================================================
 Values of the parameters that define the memory need for DATASET  3.
     intxc =       0    ionmov =       0      iscf =      -2    lmnmax =       6
     lnmax =       6     mgfft =     100  mpssoang =       3    mqgrid =    4876
     natom =       4  nloc_mem =       1    nspden =       1   nspinor =       1
    nsppol =       1      nsym =      16    n1xccc =    2501    ntypat =       2
    occopt =       1   xclevel =       2
-    mband =         100        mffmem =           1         mkmem =          48
       mpw =        7039          nfft =      129600          nkpt =         288
================================================================================
P This job should need less than                     549.401 Mbytes of memory.
  Rough estimation (10% accuracy) of disk space for files :
_ WF disk file :   3093.313 Mbytes ; DEN or POT disk file :      0.991 Mbytes.
================================================================================


 DATASET    4 : space group P4/n m m (#129); Bravais tP (primitive tetrag.)
================================================================================
 Values of the parameters that define the memory need for DATASET  4 (RF).
     intxc =       0      iscf =      -3    lmnmax =       6     lnmax =       6
     mgfft =     100  mpssoang =       3    mqgrid =    4876     natom =       4
  nloc_mem =       1    nspden =       1   nspinor =       1    nsppol =       1
      nsym =      16    n1xccc =    2501    ntypat =       2    occopt =       1
   xclevel =       2
-    mband =         100        mffmem =           1         mkmem =          48
-   mkqmem =          48        mk1mem =          48           mpw =        7039
      nfft =      129600          nkpt =         288
================================================================================
P This job should need less than                    1631.860 Mbytes of memory.
  Rough estimation (10% accuracy) of disk space for files :
_ WF disk file :  -1002.687 Mbytes ; DEN or POT disk file :      0.991 Mbytes.
================================================================================


 DATASET    5 : space group P4/n m m (#129); Bravais tP (primitive tetrag.)
================================================================================
 Values of the parameters that define the memory need for DATASET  5 (RF).
     intxc =       0      iscf =      -3    lmnmax =       6     lnmax =       6
     mgfft =     100  mpssoang =       3    mqgrid =    4876     natom =       4
  nloc_mem =       1    nspden =       1   nspinor =       1    nsppol =       1
      nsym =      16    n1xccc =    2501    ntypat =       2    occopt =       1
   xclevel =       2
-    mband =         100        mffmem =           1         mkmem =          48
-   mkqmem =          48        mk1mem =          48           mpw =        7039
      nfft =      129600          nkpt =         288
================================================================================
P This job should need less than                    1631.860 Mbytes of memory.
  Rough estimation (10% accuracy) of disk space for files :
_ WF disk file :  -1002.687 Mbytes ; DEN or POT disk file :      0.991 Mbytes.
================================================================================


 DATASET    6 : space group P4/n m m (#129); Bravais tP (primitive tetrag.)
================================================================================
 Values of the parameters that define the memory need for DATASET  6 (RF).
     intxc =       0      iscf =      -3    lmnmax =       6     lnmax =       6
     mgfft =     100  mpssoang =       3    mqgrid =    4876     natom =       4
  nloc_mem =       1    nspden =       1   nspinor =       1    nsppol =       1
      nsym =      16    n1xccc =    2501    ntypat =       2    occopt =       1
   xclevel =       2
-    mband =         100        mffmem =           1         mkmem =          48
-   mkqmem =          48        mk1mem =          48           mpw =        7039
      nfft =      129600          nkpt =         288
================================================================================
P This job should need less than                    1631.860 Mbytes of memory.
  Rough estimation (10% accuracy) of disk space for files :
_ WF disk file :  -1002.687 Mbytes ; DEN or POT disk file :      0.991 Mbytes.
================================================================================

--------------------------------------------------------------------------------
------------- Echo of variables that govern the present computation ------------
--------------------------------------------------------------------------------
-
- outvars: echo of selected default values                                      
-   iomode0 =  0 , fftalg0 =112 , wfoptalg0 =  0
-
- outvars: echo of global parameters not present in the input file              
-  max_nthreads =    0
-
 -outvars: echo values of preprocessed input variables --------
            acell      7.7624316804E+00  7.7624316804E+00  7.7624316804E+00 Bohr
              amu      1.18710000E+02  7.89600000E+01
           diemac      1.20000000E+01
             ecut      2.25000000E+01 Hartree
-          fftalg         112
           getden1          0
           getden2          1
           getden3          1
           getden4          0
           getden5          0
           getden6          0
           getwfk1          0
           getwfk2          1
           getwfk3          2
           getwfk4          3
           getwfk5          3
           getwfk6          3
             iscf1          7
             iscf2         -2
             iscf3         -2
             iscf4         -3
             iscf5         -3
             iscf6         -3
              ixc          11
           jdtset        1    2    3    4    5    6
              kpt1     4.16666667E-02  4.16666667E-02  1.25000000E-01
                       1.25000000E-01  4.16666667E-02  1.25000000E-01
                       2.08333333E-01  4.16666667E-02  1.25000000E-01
                       2.91666667E-01  4.16666667E-02  1.25000000E-01
                       3.75000000E-01  4.16666667E-02  1.25000000E-01
                       4.58333333E-01  4.16666667E-02  1.25000000E-01
                       1.25000000E-01  1.25000000E-01  1.25000000E-01
                       2.08333333E-01  1.25000000E-01  1.25000000E-01
                       2.91666667E-01  1.25000000E-01  1.25000000E-01
                       3.75000000E-01  1.25000000E-01  1.25000000E-01
                       4.58333333E-01  1.25000000E-01  1.25000000E-01
                       2.08333333E-01  2.08333333E-01  1.25000000E-01
                       2.91666667E-01  2.08333333E-01  1.25000000E-01
                       3.75000000E-01  2.08333333E-01  1.25000000E-01
                       4.58333333E-01  2.08333333E-01  1.25000000E-01
                       2.91666667E-01  2.91666667E-01  1.25000000E-01
                       3.75000000E-01  2.91666667E-01  1.25000000E-01
                       4.58333333E-01  2.91666667E-01  1.25000000E-01
                       3.75000000E-01  3.75000000E-01  1.25000000E-01
                       4.58333333E-01  3.75000000E-01  1.25000000E-01
                       4.58333333E-01  4.58333333E-01  1.25000000E-01
                       4.16666667E-02  4.16666667E-02  3.75000000E-01
                       1.25000000E-01  4.16666667E-02  3.75000000E-01
                       2.08333333E-01  4.16666667E-02  3.75000000E-01
                       2.91666667E-01  4.16666667E-02  3.75000000E-01
                       3.75000000E-01  4.16666667E-02  3.75000000E-01
                       4.58333333E-01  4.16666667E-02  3.75000000E-01
                       1.25000000E-01  1.25000000E-01  3.75000000E-01
                       2.08333333E-01  1.25000000E-01  3.75000000E-01
                       2.91666667E-01  1.25000000E-01  3.75000000E-01
                       3.75000000E-01  1.25000000E-01  3.75000000E-01
                       4.58333333E-01  1.25000000E-01  3.75000000E-01
                       2.08333333E-01  2.08333333E-01  3.75000000E-01
                       2.91666667E-01  2.08333333E-01  3.75000000E-01
                       3.75000000E-01  2.08333333E-01  3.75000000E-01
                       4.58333333E-01  2.08333333E-01  3.75000000E-01
                       2.91666667E-01  2.91666667E-01  3.75000000E-01
                       3.75000000E-01  2.91666667E-01  3.75000000E-01
                       4.58333333E-01  2.91666667E-01  3.75000000E-01
                       3.75000000E-01  3.75000000E-01  3.75000000E-01
                       4.58333333E-01  3.75000000E-01  3.75000000E-01
                       4.58333333E-01  4.58333333E-01  3.75000000E-01
              kpt2     4.16666667E-02  4.16666667E-02  1.25000000E-01
                       1.25000000E-01  4.16666667E-02  1.25000000E-01
                       2.08333333E-01  4.16666667E-02  1.25000000E-01
                       2.91666667E-01  4.16666667E-02  1.25000000E-01
                       3.75000000E-01  4.16666667E-02  1.25000000E-01
                       4.58333333E-01  4.16666667E-02  1.25000000E-01
                       1.25000000E-01  1.25000000E-01  1.25000000E-01
                       2.08333333E-01  1.25000000E-01  1.25000000E-01
                       2.91666667E-01  1.25000000E-01  1.25000000E-01
                       3.75000000E-01  1.25000000E-01  1.25000000E-01
                       4.58333333E-01  1.25000000E-01  1.25000000E-01
                       2.08333333E-01  2.08333333E-01  1.25000000E-01
                       2.91666667E-01  2.08333333E-01  1.25000000E-01
                       3.75000000E-01  2.08333333E-01  1.25000000E-01
                       4.58333333E-01  2.08333333E-01  1.25000000E-01
                       2.91666667E-01  2.91666667E-01  1.25000000E-01
                       3.75000000E-01  2.91666667E-01  1.25000000E-01
                       4.58333333E-01  2.91666667E-01  1.25000000E-01
                       3.75000000E-01  3.75000000E-01  1.25000000E-01
                       4.58333333E-01  3.75000000E-01  1.25000000E-01
                       4.58333333E-01  4.58333333E-01  1.25000000E-01
                       4.16666667E-02  4.16666667E-02  3.75000000E-01
                       1.25000000E-01  4.16666667E-02  3.75000000E-01
                       2.08333333E-01  4.16666667E-02  3.75000000E-01
                       2.91666667E-01  4.16666667E-02  3.75000000E-01
                       3.75000000E-01  4.16666667E-02  3.75000000E-01
                       4.58333333E-01  4.16666667E-02  3.75000000E-01
                       1.25000000E-01  1.25000000E-01  3.75000000E-01
                       2.08333333E-01  1.25000000E-01  3.75000000E-01
                       2.91666667E-01  1.25000000E-01  3.75000000E-01
                       3.75000000E-01  1.25000000E-01  3.75000000E-01
                       4.58333333E-01  1.25000000E-01  3.75000000E-01
                       2.08333333E-01  2.08333333E-01  3.75000000E-01
                       2.91666667E-01  2.08333333E-01  3.75000000E-01
                       3.75000000E-01  2.08333333E-01  3.75000000E-01
                       4.58333333E-01  2.08333333E-01  3.75000000E-01
                       2.91666667E-01  2.91666667E-01  3.75000000E-01
                       3.75000000E-01  2.91666667E-01  3.75000000E-01
                       4.58333333E-01  2.91666667E-01  3.75000000E-01
                       3.75000000E-01  3.75000000E-01  3.75000000E-01
                       4.58333333E-01  3.75000000E-01  3.75000000E-01
                       4.58333333E-01  4.58333333E-01  3.75000000E-01
              kpt3     4.16666667E-02  4.16666667E-02  1.25000000E-01
                       1.25000000E-01  4.16666667E-02  1.25000000E-01
                       2.08333333E-01  4.16666667E-02  1.25000000E-01
                       2.91666667E-01  4.16666667E-02  1.25000000E-01
                       3.75000000E-01  4.16666667E-02  1.25000000E-01
                       4.58333333E-01  4.16666667E-02  1.25000000E-01
                      -4.58333333E-01  4.16666667E-02  1.25000000E-01
                      -3.75000000E-01  4.16666667E-02  1.25000000E-01
                      -2.91666667E-01  4.16666667E-02  1.25000000E-01
                      -2.08333333E-01  4.16666667E-02  1.25000000E-01
                      -1.25000000E-01  4.16666667E-02  1.25000000E-01
                      -4.16666667E-02  4.16666667E-02  1.25000000E-01
                       4.16666667E-02  1.25000000E-01  1.25000000E-01
                       1.25000000E-01  1.25000000E-01  1.25000000E-01
                       2.08333333E-01  1.25000000E-01  1.25000000E-01
                       2.91666667E-01  1.25000000E-01  1.25000000E-01
                       3.75000000E-01  1.25000000E-01  1.25000000E-01
                       4.58333333E-01  1.25000000E-01  1.25000000E-01
                      -4.58333333E-01  1.25000000E-01  1.25000000E-01
                      -3.75000000E-01  1.25000000E-01  1.25000000E-01
                      -2.91666667E-01  1.25000000E-01  1.25000000E-01
                      -2.08333333E-01  1.25000000E-01  1.25000000E-01
                      -1.25000000E-01  1.25000000E-01  1.25000000E-01
                      -4.16666667E-02  1.25000000E-01  1.25000000E-01
                       4.16666667E-02  2.08333333E-01  1.25000000E-01
                       1.25000000E-01  2.08333333E-01  1.25000000E-01
                       2.08333333E-01  2.08333333E-01  1.25000000E-01
                       2.91666667E-01  2.08333333E-01  1.25000000E-01
                       3.75000000E-01  2.08333333E-01  1.25000000E-01
                       4.58333333E-01  2.08333333E-01  1.25000000E-01
                      -4.58333333E-01  2.08333333E-01  1.25000000E-01
                      -3.75000000E-01  2.08333333E-01  1.25000000E-01
                      -2.91666667E-01  2.08333333E-01  1.25000000E-01
                      -2.08333333E-01  2.08333333E-01  1.25000000E-01
                      -1.25000000E-01  2.08333333E-01  1.25000000E-01
                      -4.16666667E-02  2.08333333E-01  1.25000000E-01
                       4.16666667E-02  2.91666667E-01  1.25000000E-01
                       1.25000000E-01  2.91666667E-01  1.25000000E-01
                       2.08333333E-01  2.91666667E-01  1.25000000E-01
                       2.91666667E-01  2.91666667E-01  1.25000000E-01
                       3.75000000E-01  2.91666667E-01  1.25000000E-01
                       4.58333333E-01  2.91666667E-01  1.25000000E-01
                      -4.58333333E-01  2.91666667E-01  1.25000000E-01
                      -3.75000000E-01  2.91666667E-01  1.25000000E-01
                      -2.91666667E-01  2.91666667E-01  1.25000000E-01
                      -2.08333333E-01  2.91666667E-01  1.25000000E-01
                      -1.25000000E-01  2.91666667E-01  1.25000000E-01
                      -4.16666667E-02  2.91666667E-01  1.25000000E-01
                       4.16666667E-02  3.75000000E-01  1.25000000E-01
                       1.25000000E-01  3.75000000E-01  1.25000000E-01
              kpt4     4.16666667E-02  4.16666667E-02  1.25000000E-01
                       1.25000000E-01  4.16666667E-02  1.25000000E-01
                       2.08333333E-01  4.16666667E-02  1.25000000E-01
                       2.91666667E-01  4.16666667E-02  1.25000000E-01
                       3.75000000E-01  4.16666667E-02  1.25000000E-01
                       4.58333333E-01  4.16666667E-02  1.25000000E-01
                      -4.58333333E-01  4.16666667E-02  1.25000000E-01
                      -3.75000000E-01  4.16666667E-02  1.25000000E-01
                      -2.91666667E-01  4.16666667E-02  1.25000000E-01
                      -2.08333333E-01  4.16666667E-02  1.25000000E-01
                      -1.25000000E-01  4.16666667E-02  1.25000000E-01
                      -4.16666667E-02  4.16666667E-02  1.25000000E-01
                       4.16666667E-02  1.25000000E-01  1.25000000E-01
                       1.25000000E-01  1.25000000E-01  1.25000000E-01
                       2.08333333E-01  1.25000000E-01  1.25000000E-01
                       2.91666667E-01  1.25000000E-01  1.25000000E-01
                       3.75000000E-01  1.25000000E-01  1.25000000E-01
                       4.58333333E-01  1.25000000E-01  1.25000000E-01
                      -4.58333333E-01  1.25000000E-01  1.25000000E-01
                      -3.75000000E-01  1.25000000E-01  1.25000000E-01
                      -2.91666667E-01  1.25000000E-01  1.25000000E-01
                      -2.08333333E-01  1.25000000E-01  1.25000000E-01
                      -1.25000000E-01  1.25000000E-01  1.25000000E-01
                      -4.16666667E-02  1.25000000E-01  1.25000000E-01
                       4.16666667E-02  2.08333333E-01  1.25000000E-01
                       1.25000000E-01  2.08333333E-01  1.25000000E-01
                       2.08333333E-01  2.08333333E-01  1.25000000E-01
                       2.91666667E-01  2.08333333E-01  1.25000000E-01
                       3.75000000E-01  2.08333333E-01  1.25000000E-01
                       4.58333333E-01  2.08333333E-01  1.25000000E-01
                      -4.58333333E-01  2.08333333E-01  1.25000000E-01
                      -3.75000000E-01  2.08333333E-01  1.25000000E-01
                      -2.91666667E-01  2.08333333E-01  1.25000000E-01
                      -2.08333333E-01  2.08333333E-01  1.25000000E-01
                      -1.25000000E-01  2.08333333E-01  1.25000000E-01
                      -4.16666667E-02  2.08333333E-01  1.25000000E-01
                       4.16666667E-02  2.91666667E-01  1.25000000E-01
                       1.25000000E-01  2.91666667E-01  1.25000000E-01
                       2.08333333E-01  2.91666667E-01  1.25000000E-01
                       2.91666667E-01  2.91666667E-01  1.25000000E-01
                       3.75000000E-01  2.91666667E-01  1.25000000E-01
                       4.58333333E-01  2.91666667E-01  1.25000000E-01
                      -4.58333333E-01  2.91666667E-01  1.25000000E-01
                      -3.75000000E-01  2.91666667E-01  1.25000000E-01
                      -2.91666667E-01  2.91666667E-01  1.25000000E-01
                      -2.08333333E-01  2.91666667E-01  1.25000000E-01
                      -1.25000000E-01  2.91666667E-01  1.25000000E-01
                      -4.16666667E-02  2.91666667E-01  1.25000000E-01
                       4.16666667E-02  3.75000000E-01  1.25000000E-01
                       1.25000000E-01  3.75000000E-01  1.25000000E-01
              kpt5     4.16666667E-02  4.16666667E-02  1.25000000E-01
                       1.25000000E-01  4.16666667E-02  1.25000000E-01
                       2.08333333E-01  4.16666667E-02  1.25000000E-01
                       2.91666667E-01  4.16666667E-02  1.25000000E-01
                       3.75000000E-01  4.16666667E-02  1.25000000E-01
                       4.58333333E-01  4.16666667E-02  1.25000000E-01
                      -4.58333333E-01  4.16666667E-02  1.25000000E-01
                      -3.75000000E-01  4.16666667E-02  1.25000000E-01
                      -2.91666667E-01  4.16666667E-02  1.25000000E-01
                      -2.08333333E-01  4.16666667E-02  1.25000000E-01
                      -1.25000000E-01  4.16666667E-02  1.25000000E-01
                      -4.16666667E-02  4.16666667E-02  1.25000000E-01
                       4.16666667E-02  1.25000000E-01  1.25000000E-01
                       1.25000000E-01  1.25000000E-01  1.25000000E-01
                       2.08333333E-01  1.25000000E-01  1.25000000E-01
                       2.91666667E-01  1.25000000E-01  1.25000000E-01
                       3.75000000E-01  1.25000000E-01  1.25000000E-01
                       4.58333333E-01  1.25000000E-01  1.25000000E-01
                      -4.58333333E-01  1.25000000E-01  1.25000000E-01
                      -3.75000000E-01  1.25000000E-01  1.25000000E-01
                      -2.91666667E-01  1.25000000E-01  1.25000000E-01
                      -2.08333333E-01  1.25000000E-01  1.25000000E-01
                      -1.25000000E-01  1.25000000E-01  1.25000000E-01
                      -4.16666667E-02  1.25000000E-01  1.25000000E-01
                       4.16666667E-02  2.08333333E-01  1.25000000E-01
                       1.25000000E-01  2.08333333E-01  1.25000000E-01
                       2.08333333E-01  2.08333333E-01  1.25000000E-01
                       2.91666667E-01  2.08333333E-01  1.25000000E-01
                       3.75000000E-01  2.08333333E-01  1.25000000E-01
                       4.58333333E-01  2.08333333E-01  1.25000000E-01
                      -4.58333333E-01  2.08333333E-01  1.25000000E-01
                      -3.75000000E-01  2.08333333E-01  1.25000000E-01
                      -2.91666667E-01  2.08333333E-01  1.25000000E-01
                      -2.08333333E-01  2.08333333E-01  1.25000000E-01
                      -1.25000000E-01  2.08333333E-01  1.25000000E-01
                      -4.16666667E-02  2.08333333E-01  1.25000000E-01
                       4.16666667E-02  2.91666667E-01  1.25000000E-01
                       1.25000000E-01  2.91666667E-01  1.25000000E-01
                       2.08333333E-01  2.91666667E-01  1.25000000E-01
                       2.91666667E-01  2.91666667E-01  1.25000000E-01
                       3.75000000E-01  2.91666667E-01  1.25000000E-01
                       4.58333333E-01  2.91666667E-01  1.25000000E-01
                      -4.58333333E-01  2.91666667E-01  1.25000000E-01
                      -3.75000000E-01  2.91666667E-01  1.25000000E-01
                      -2.91666667E-01  2.91666667E-01  1.25000000E-01
                      -2.08333333E-01  2.91666667E-01  1.25000000E-01
                      -1.25000000E-01  2.91666667E-01  1.25000000E-01
                      -4.16666667E-02  2.91666667E-01  1.25000000E-01
                       4.16666667E-02  3.75000000E-01  1.25000000E-01
                       1.25000000E-01  3.75000000E-01  1.25000000E-01
              kpt6     4.16666667E-02  4.16666667E-02  1.25000000E-01
                       1.25000000E-01  4.16666667E-02  1.25000000E-01
                       2.08333333E-01  4.16666667E-02  1.25000000E-01
                       2.91666667E-01  4.16666667E-02  1.25000000E-01
                       3.75000000E-01  4.16666667E-02  1.25000000E-01
                       4.58333333E-01  4.16666667E-02  1.25000000E-01
                      -4.58333333E-01  4.16666667E-02  1.25000000E-01
                      -3.75000000E-01  4.16666667E-02  1.25000000E-01
                      -2.91666667E-01  4.16666667E-02  1.25000000E-01
                      -2.08333333E-01  4.16666667E-02  1.25000000E-01
                      -1.25000000E-01  4.16666667E-02  1.25000000E-01
                      -4.16666667E-02  4.16666667E-02  1.25000000E-01
                       4.16666667E-02  1.25000000E-01  1.25000000E-01
                       1.25000000E-01  1.25000000E-01  1.25000000E-01
                       2.08333333E-01  1.25000000E-01  1.25000000E-01
                       2.91666667E-01  1.25000000E-01  1.25000000E-01
                       3.75000000E-01  1.25000000E-01  1.25000000E-01
                       4.58333333E-01  1.25000000E-01  1.25000000E-01
                      -4.58333333E-01  1.25000000E-01  1.25000000E-01
                      -3.75000000E-01  1.25000000E-01  1.25000000E-01
                      -2.91666667E-01  1.25000000E-01  1.25000000E-01
                      -2.08333333E-01  1.25000000E-01  1.25000000E-01
                      -1.25000000E-01  1.25000000E-01  1.25000000E-01
                      -4.16666667E-02  1.25000000E-01  1.25000000E-01
                       4.16666667E-02  2.08333333E-01  1.25000000E-01
                       1.25000000E-01  2.08333333E-01  1.25000000E-01
                       2.08333333E-01  2.08333333E-01  1.25000000E-01
                       2.91666667E-01  2.08333333E-01  1.25000000E-01
                       3.75000000E-01  2.08333333E-01  1.25000000E-01
                       4.58333333E-01  2.08333333E-01  1.25000000E-01
                      -4.58333333E-01  2.08333333E-01  1.25000000E-01
                      -3.75000000E-01  2.08333333E-01  1.25000000E-01
                      -2.91666667E-01  2.08333333E-01  1.25000000E-01
                      -2.08333333E-01  2.08333333E-01  1.25000000E-01
                      -1.25000000E-01  2.08333333E-01  1.25000000E-01
                      -4.16666667E-02  2.08333333E-01  1.25000000E-01
                       4.16666667E-02  2.91666667E-01  1.25000000E-01
                       1.25000000E-01  2.91666667E-01  1.25000000E-01
                       2.08333333E-01  2.91666667E-01  1.25000000E-01
                       2.91666667E-01  2.91666667E-01  1.25000000E-01
                       3.75000000E-01  2.91666667E-01  1.25000000E-01
                       4.58333333E-01  2.91666667E-01  1.25000000E-01
                      -4.58333333E-01  2.91666667E-01  1.25000000E-01
                      -3.75000000E-01  2.91666667E-01  1.25000000E-01
                      -2.91666667E-01  2.91666667E-01  1.25000000E-01
                      -2.08333333E-01  2.91666667E-01  1.25000000E-01
                      -1.25000000E-01  2.91666667E-01  1.25000000E-01
                      -4.16666667E-02  2.91666667E-01  1.25000000E-01
                       4.16666667E-02  3.75000000E-01  1.25000000E-01
                       1.25000000E-01  3.75000000E-01  1.25000000E-01
                       outvar_i_n : Printing only first  50 k-points.
           kptopt1          1
           kptopt2          1
           kptopt3          2
           kptopt4          2
           kptopt5          2
           kptopt6          2
         kptrlatt       12    0    0      0   12    0      0    0    4
          kptrlen      9.31491802E+01
P           mkmem1          7
P           mkmem2          7
P           mkmem3         48
P           mkmem4         48
P           mkmem5         48
P           mkmem6         48
P          mkqmem1          7
P          mkqmem2          7
P          mkqmem3         48
P          mkqmem4         48
P          mkqmem5         48
P          mkqmem6         48
P          mk1mem1          7
P          mk1mem2          7
P          mk1mem3         48
P          mk1mem4         48
P          mk1mem5         48
P          mk1mem6         48
            natom           4
            nband1         31
            nband2        100
            nband3        100
            nband4        100
            nband5        100
            nband6        100
           nbdbuf1          0
           nbdbuf2          2
           nbdbuf3          2
           nbdbuf4          2
           nbdbuf5          2
           nbdbuf6          2
           ndtset           6
            ngfft          36      36     100
             nkpt1         42
             nkpt2         42
             nkpt3        288
             nkpt4        288
             nkpt5        288
             nkpt6        288
            nline1          4
            nline2          4
            nline3          4
            nline4          0
            nline5          0
            nline6          0
             nqpt1          0
             nqpt2          0
             nqpt3          0
             nqpt4          1
             nqpt5          1
             nqpt6          1
            nstep1        400
            nstep2        200
            nstep3        200
            nstep4          1
            nstep5          1
            nstep6          1
             nsym          16
           ntypat           2
              occ1     2.000000  2.000000  2.000000  2.000000  2.000000  2.000000
                       2.000000  2.000000  2.000000  2.000000  2.000000  2.000000
                       2.000000  2.000000  2.000000  2.000000  2.000000  2.000000
                       2.000000  2.000000  2.000000  2.000000  2.000000  2.000000
                       2.000000  2.000000  2.000000  2.000000  2.000000  2.000000
                       0.000000
              occ4     2.000000  2.000000  2.000000  2.000000  2.000000  2.000000
                       2.000000  2.000000  2.000000  2.000000  2.000000  2.000000
                       2.000000  2.000000  2.000000  2.000000  2.000000  2.000000
                       2.000000  2.000000  2.000000  2.000000  2.000000  2.000000
                       2.000000  2.000000  2.000000  2.000000  2.000000  2.000000
                       0.000000  0.000000  0.000000  0.000000  0.000000  0.000000
                       0.000000  0.000000  0.000000  0.000000  0.000000  0.000000
                       0.000000  0.000000  0.000000  0.000000  0.000000  0.000000
                       0.000000  0.000000  0.000000  0.000000  0.000000  0.000000
                       0.000000  0.000000  0.000000  0.000000  0.000000  0.000000
                       0.000000  0.000000  0.000000  0.000000  0.000000  0.000000
                       0.000000  0.000000  0.000000  0.000000  0.000000  0.000000
                       0.000000  0.000000  0.000000  0.000000  0.000000  0.000000
                       0.000000  0.000000  0.000000  0.000000  0.000000  0.000000
                       0.000000  0.000000  0.000000  0.000000  0.000000  0.000000
                       0.000000  0.000000  0.000000  0.000000  0.000000  0.000000
                       0.000000  0.000000  0.000000  0.000000
              occ5     2.000000  2.000000  2.000000  2.000000  2.000000  2.000000
                       2.000000  2.000000  2.000000  2.000000  2.000000  2.000000
                       2.000000  2.000000  2.000000  2.000000  2.000000  2.000000
                       2.000000  2.000000  2.000000  2.000000  2.000000  2.000000
                       2.000000  2.000000  2.000000  2.000000  2.000000  2.000000
                       0.000000  0.000000  0.000000  0.000000  0.000000  0.000000
                       0.000000  0.000000  0.000000  0.000000  0.000000  0.000000
                       0.000000  0.000000  0.000000  0.000000  0.000000  0.000000
                       0.000000  0.000000  0.000000  0.000000  0.000000  0.000000
                       0.000000  0.000000  0.000000  0.000000  0.000000  0.000000
                       0.000000  0.000000  0.000000  0.000000  0.000000  0.000000
                       0.000000  0.000000  0.000000  0.000000  0.000000  0.000000
                       0.000000  0.000000  0.000000  0.000000  0.000000  0.000000
                       0.000000  0.000000  0.000000  0.000000  0.000000  0.000000
                       0.000000  0.000000  0.000000  0.000000  0.000000  0.000000
                       0.000000  0.000000  0.000000  0.000000  0.000000  0.000000
                       0.000000  0.000000  0.000000  0.000000
              occ6     2.000000  2.000000  2.000000  2.000000  2.000000  2.000000
                       2.000000  2.000000  2.000000  2.000000  2.000000  2.000000
                       2.000000  2.000000  2.000000  2.000000  2.000000  2.000000
                       2.000000  2.000000  2.000000  2.000000  2.000000  2.000000
                       2.000000  2.000000  2.000000  2.000000  2.000000  2.000000
                       0.000000  0.000000  0.000000  0.000000  0.000000  0.000000
                       0.000000  0.000000  0.000000  0.000000  0.000000  0.000000
                       0.000000  0.000000  0.000000  0.000000  0.000000  0.000000
                       0.000000  0.000000  0.000000  0.000000  0.000000  0.000000
                       0.000000  0.000000  0.000000  0.000000  0.000000  0.000000
                       0.000000  0.000000  0.000000  0.000000  0.000000  0.000000
                       0.000000  0.000000  0.000000  0.000000  0.000000  0.000000
                       0.000000  0.000000  0.000000  0.000000  0.000000  0.000000
                       0.000000  0.000000  0.000000  0.000000  0.000000  0.000000
                       0.000000  0.000000  0.000000  0.000000  0.000000  0.000000
                       0.000000  0.000000  0.000000  0.000000  0.000000  0.000000
                       0.000000  0.000000  0.000000  0.000000
        optdriver1          0
        optdriver2          0
        optdriver3          0
        optdriver4          1
        optdriver5          1
        optdriver6          1
            prtwf1          1
            prtwf2          1
            prtwf3          1
            prtwf4          3
            prtwf5          3
            prtwf6          3
            rfdir1          0       0       0
            rfdir2          0       0       0
            rfdir3          0       0       0
            rfdir4          1       0       0
            rfdir5          0       1       0
            rfdir6          0       0       1
           rfelfd1          0
           rfelfd2          0
           rfelfd3          0
           rfelfd4          2
           rfelfd5          2
           rfelfd6          2
            rprim      1.0000000000E+00  0.0000000000E+00  0.0000000000E+00
                       0.0000000000E+00  1.0000000000E+00  0.0000000000E+00
                       0.0000000000E+00  0.0000000000E+00  2.9414414678E+00
           shiftk      5.00000000E-01  5.00000000E-01  5.00000000E-01
          spgroup         129
           symrel      1  0  0   0  1  0   0  0  1      -1  0  0   0 -1  0   0  0 -1
                      -1  0  0   0  1  0   0  0 -1       1  0  0   0 -1  0   0  0  1
                      -1  0  0   0 -1  0   0  0  1       1  0  0   0  1  0   0  0 -1
                       1  0  0   0 -1  0   0  0 -1      -1  0  0   0  1  0   0  0  1
                       0  1  0   1  0  0   0  0  1       0 -1  0  -1  0  0   0  0 -1
                       0 -1  0   1  0  0   0  0 -1       0  1  0  -1  0  0   0  0  1
                       0 -1  0  -1  0  0   0  0  1       0  1  0   1  0  0   0  0 -1
                       0  1  0  -1  0  0   0  0 -1       0 -1  0   1  0  0   0  0  1
            tnons      0.0000000  0.0000000  0.0000000     0.5000000  0.5000000  0.0000000
                       0.5000000  0.5000000  0.0000000     0.0000000  0.0000000  0.0000000
                       0.0000000  0.0000000  0.0000000     0.5000000  0.5000000  0.0000000
                       0.5000000  0.5000000  0.0000000     0.0000000  0.0000000  0.0000000
                       0.5000000  0.5000000  0.0000000     0.0000000  0.0000000  0.0000000
                       0.0000000  0.0000000  0.0000000     0.5000000  0.5000000  0.0000000
                       0.5000000  0.5000000  0.0000000     0.0000000  0.0000000  0.0000000
                       0.0000000  0.0000000  0.0000000     0.5000000  0.5000000  0.0000000
           tolwfr      1.00000000E-20
            typat      1  1  2  2
           vdw_xc           5
              wtk1       0.01389    0.02778    0.02778    0.02778    0.02778    0.02778
                         0.01389    0.02778    0.02778    0.02778    0.02778    0.01389
                         0.02778    0.02778    0.02778    0.01389    0.02778    0.02778
                         0.01389    0.02778    0.01389    0.01389    0.02778    0.02778
                         0.02778    0.02778    0.02778    0.01389    0.02778    0.02778
                         0.02778    0.02778    0.01389    0.02778    0.02778    0.02778
                         0.01389    0.02778    0.02778    0.01389    0.02778    0.01389
              wtk2       0.01389    0.02778    0.02778    0.02778    0.02778    0.02778
                         0.01389    0.02778    0.02778    0.02778    0.02778    0.01389
                         0.02778    0.02778    0.02778    0.01389    0.02778    0.02778
                         0.01389    0.02778    0.01389    0.01389    0.02778    0.02778
                         0.02778    0.02778    0.02778    0.01389    0.02778    0.02778
                         0.02778    0.02778    0.01389    0.02778    0.02778    0.02778
                         0.01389    0.02778    0.02778    0.01389    0.02778    0.01389
              wtk3       0.00347    0.00347    0.00347    0.00347    0.00347    0.00347
                         0.00347    0.00347    0.00347    0.00347    0.00347    0.00347
                         0.00347    0.00347    0.00347    0.00347    0.00347    0.00347
                         0.00347    0.00347    0.00347    0.00347    0.00347    0.00347
                         0.00347    0.00347    0.00347    0.00347    0.00347    0.00347
                         0.00347    0.00347    0.00347    0.00347    0.00347    0.00347
                         0.00347    0.00347    0.00347    0.00347    0.00347    0.00347
                         0.00347    0.00347    0.00347    0.00347    0.00347    0.00347
                         0.00347    0.00347
              wtk4       0.00347    0.00347    0.00347    0.00347    0.00347    0.00347
                         0.00347    0.00347    0.00347    0.00347    0.00347    0.00347
                         0.00347    0.00347    0.00347    0.00347    0.00347    0.00347
                         0.00347    0.00347    0.00347    0.00347    0.00347    0.00347
                         0.00347    0.00347    0.00347    0.00347    0.00347    0.00347
                         0.00347    0.00347    0.00347    0.00347    0.00347    0.00347
                         0.00347    0.00347    0.00347    0.00347    0.00347    0.00347
                         0.00347    0.00347    0.00347    0.00347    0.00347    0.00347
                         0.00347    0.00347
              wtk5       0.00347    0.00347    0.00347    0.00347    0.00347    0.00347
                         0.00347    0.00347    0.00347    0.00347    0.00347    0.00347
                         0.00347    0.00347    0.00347    0.00347    0.00347    0.00347
                         0.00347    0.00347    0.00347    0.00347    0.00347    0.00347
                         0.00347    0.00347    0.00347    0.00347    0.00347    0.00347
                         0.00347    0.00347    0.00347    0.00347    0.00347    0.00347
                         0.00347    0.00347    0.00347    0.00347    0.00347    0.00347
                         0.00347    0.00347    0.00347    0.00347    0.00347    0.00347
                         0.00347    0.00347
              wtk6       0.00347    0.00347    0.00347    0.00347    0.00347    0.00347
                         0.00347    0.00347    0.00347    0.00347    0.00347    0.00347
                         0.00347    0.00347    0.00347    0.00347    0.00347    0.00347
                         0.00347    0.00347    0.00347    0.00347    0.00347    0.00347
                         0.00347    0.00347    0.00347    0.00347    0.00347    0.00347
                         0.00347    0.00347    0.00347    0.00347    0.00347    0.00347
                         0.00347    0.00347    0.00347    0.00347    0.00347    0.00347
                         0.00347    0.00347    0.00347    0.00347    0.00347    0.00347
                         0.00347    0.00347
                       outvars : Printing only first  50 k-points.
           xangst      2.0538509643E+00  0.0000000000E+00  4.6664677603E+00
                       0.0000000000E+00  2.0538509643E+00  7.4160970295E+00
                       2.0538509643E+00  0.0000000000E+00  7.3843319666E+00
                       0.0000000000E+00  2.0538509643E+00  4.6982328231E+00
            xcart      3.8812158402E+00  0.0000000000E+00  8.8183460748E+00
                       0.0000000000E+00  3.8812158402E+00  1.4014392361E+01
                       3.8812158402E+00  0.0000000000E+00  1.3954365091E+01
                       0.0000000000E+00  3.8812158402E+00  8.8783733442E+00
             xred      5.0000000000E-01  0.0000000000E+00  3.8621500000E-01
                       0.0000000000E+00  5.0000000000E-01  6.1378500000E-01
                       5.0000000000E-01  0.0000000000E+00  6.1115600000E-01
                       0.0000000000E+00  5.0000000000E-01  3.8884400000E-01
            znucl       50.00000   34.00000

================================================================================

 chkinp: Checking input parameters for consistency, jdtset=   1.

 chkinp: Checking input parameters for consistency, jdtset=   2.

 chkinp: Checking input parameters for consistency, jdtset=   3.

 chkinp: Checking input parameters for consistency, jdtset=   4.

 chkinp: Checking input parameters for consistency, jdtset=   5.

 chkinp: Checking input parameters for consistency, jdtset=   6.

================================================================================
== DATASET  1 ==================================================================
-   mpi_nproc: 6, omp_nthreads: -1 (-1 if OMP is not activated)


--- !DatasetInfo
iteration_state: {dtset: 1, }
dimensions: {natom: 4, nkpt: 42, mband: 31, nsppol: 1, nspinor: 1, nspden: 1, mpw: 7039, }
cutoff_energies: {ecut:  22.5, pawecutdg:  -1.0, }
electrons: {nelect:   6.00000000E+01, charge:   0.00000000E+00, occopt:   1.00000000E+00, tsmear:   1.00000000E-02, }
meta: {optdriver: 0, ionmov: 0, optcell: 0, iscf: 7, paral_kgb: 0, }
...

 Exchange-correlation functional for the present dataset will be:
  GGA: Perdew-Burke-Ernzerhof functional - ixc=11
 Citation for XC functional:
  J.P.Perdew, K.Burke, M.Ernzerhof, PRL 77, 3865 (1996)

 Real(R)+Recip(G) space primitive vectors, cartesian coordinates (Bohr,Bohr^-1):
 R(1)=  7.7624317  0.0000000  0.0000000  G(1)=  0.1288256  0.0000000  0.0000000
 R(2)=  0.0000000  7.7624317  0.0000000  G(2)=  0.0000000  0.1288256  0.0000000
 R(3)=  0.0000000  0.0000000 22.8327384  G(3)=  0.0000000  0.0000000  0.0437968
 Unit cell volume ucvol=  1.3757945E+03 bohr^3
 Angles (23,13,12)=  9.00000000E+01  9.00000000E+01  9.00000000E+01 degrees

 getcut: wavevector=  0.0000  0.0000  0.0000  ngfft=  36  36 100
         ecut(hartree)=     22.500   => boxcut(ratio)=   2.05109

--- Pseudopotential description ------------------------------------------------
- pspini: atom type   1  psp file is ../../../Psps_for_tests/ATOMICDATA_NC/Sn.psp8
- pspatm: opening atomic psp file    ../../../Psps_for_tests/ATOMICDATA_NC/Sn.psp8
- Sn    ONCVPSP  r_core=  2.27  2.62  1.86
- 50.00000  14.00000    150810                znucl, zion, pspdat
    8   11    2    4       600   0.00000      pspcod,pspxc,lmax,lloc,mmax,r2well
    5.99000000000000    6.50000000000000    0.00000000000000   rchrg,fchrg,qchrg
     nproj     2     2     2
     extension_switch     1
  pspatm : epsatm=   32.65190642
         --- l  ekb(1:nproj) -->
             0    5.462393    0.682281
             1    4.443814    0.825686
             2   -5.382195   -1.704077
 pspatm: atomic psp has been read  and splines computed

- pspini: atom type   2  psp file is ../../../Psps_for_tests/ATOMICDATA_NC/Se.psp8
- pspatm: opening atomic psp file    ../../../Psps_for_tests/ATOMICDATA_NC/Se.psp8
- Se    ONCVPSP  r_core=  1.82  1.50  1.91
- 34.00000  16.00000    150729                znucl, zion, pspdat
    8   11    2    4       600   0.00000      pspcod,pspxc,lmax,lloc,mmax,r2well
    5.99000000000000    5.00000000000000    0.00000000000000   rchrg,fchrg,qchrg
     nproj     2     2     2
     extension_switch     1
  pspatm : epsatm=   29.53325930
         --- l  ekb(1:nproj) -->
             0    8.612261    0.939919
             1    6.984962    1.281898
             2   -9.322521   -3.856218
 pspatm: atomic psp has been read  and splines computed

   7.46221989E+03                                ecore*ucvol(ha*bohr**3)
--------------------------------------------------------------------------------

_setup2: Arith. and geom. avg. npw (full set) are    7012.792    7012.784

================================================================================

--- !BeginCycle
iteration_state: {dtset: 1, }
solver: {iscf: 7, nstep: 400, nline: 4, wfoptalg: 0, }
tolerances: {tolwfr: 1.00E-20, }
...

     iter   Etot(hartree)      deltaE(h)  residm     vres2
 ETOT  1  -384.85495256119    -3.849E+02 9.352E-01 3.238E+04
 ETOT  2  -396.93616837442    -1.208E+01 9.806E-02 6.953E+03
 ETOT  3  -397.73868949646    -8.025E-01 2.722E-02 2.680E+03
 ETOT  4  -397.81561757998    -7.693E-02 8.158E-03 1.584E+03
 ETOT  5  -397.85008956793    -3.447E-02 1.227E-03 8.758E+02
 ETOT  6  -397.85788665621    -7.797E-03 7.721E-04 6.508E+02
 ETOT  7  -397.86348724519    -5.601E-03 4.349E-04 4.584E+02
 ETOT  8  -397.86842183963    -4.935E-03 3.623E-04 2.790E+02
 ETOT  9  -397.87010039947    -1.679E-03 4.210E-04 2.109E+02
 ETOT 10  -397.87440581234    -4.305E-03 1.380E-03 4.565E+01
 ETOT 11  -397.87446183792    -5.603E-05 3.436E-04 3.732E+01
 ETOT 12  -397.87449192067    -3.008E-05 7.655E-04 2.608E+01
 ETOT 13  -397.87462289741    -1.310E-04 2.243E-03 1.256E+01
 ETOT 14  -397.87461362380     9.274E-06 1.622E-04 5.383E+00
 ETOT 15  -397.87464064088    -2.702E-05 3.485E-04 1.771E+00
 ETOT 16  -397.87464170597    -1.065E-06 2.972E-05 6.622E-01
 ETOT 17  -397.87464449197    -2.786E-06 2.345E-04 1.558E-01
 ETOT 18  -397.87464408283     4.091E-07 4.919E-05 7.756E-02
 ETOT 19  -397.87464452352    -4.407E-07 1.095E-05 1.328E-02
 ETOT 20  -397.87464456638    -4.285E-08 2.861E-05 5.345E-03
 ETOT 21  -397.87464460150    -3.513E-08 2.579E-05 2.163E-04
 ETOT 22  -397.87464460658    -5.074E-09 7.111E-05 3.182E-05
 ETOT 23  -397.87464460733    -7.481E-10 5.128E-05 2.604E-06
 ETOT 24  -397.87464460739    -6.230E-11 1.461E-04 1.938E-07
 ETOT 25  -397.87464460735     4.081E-11 7.734E-05 7.169E-09
 ETOT 26  -397.87464460743    -8.123E-11 2.129E-04 2.784E-09
 ETOT 27  -397.87464460731     1.141E-10 8.454E-05 7.020E-11
 ETOT 28  -397.87464460736    -4.070E-11 2.146E-04 7.318E-12
 ETOT 29  -397.87464460739    -3.763E-11 6.850E-05 4.471E-13
 ETOT 30  -397.87464460740    -2.501E-12 1.569E-04 7.321E-14
 ETOT 31  -397.87464460739     3.638E-12 4.442E-05 5.437E-14
 ETOT 32  -397.87464460737     1.910E-11 9.285E-05 3.827E-14
 ETOT 33  -397.87464460737     1.137E-13 2.483E-05 2.547E-14
 ETOT 34  -397.87464460737     6.935E-12 4.869E-05 5.439E-15
 ETOT 35  -397.87464460735     1.063E-11 1.271E-05 2.943E-15
 ETOT 36  -397.87464460735     6.708E-12 2.404E-05 3.544E-16
 ETOT 37  -397.87464460734     4.036E-12 6.202E-06 7.523E-17
 ETOT 38  -397.87464460734     3.865E-12 1.147E-05 4.467E-17
 ETOT 39  -397.87464460735    -1.336E-11 2.956E-06 1.178E-17
 ETOT 40  -397.87464460736    -1.091E-11 5.410E-06 5.333E-18
 ETOT 41  -397.87464460736     3.979E-13 1.392E-06 3.839E-18
 ETOT 42  -397.87464460736     1.364E-12 2.520E-06 3.384E-18
 ETOT 43  -397.87464460737    -2.501E-12 6.518E-07 3.700E-18
 ETOT 44  -397.87464460736     2.501E-12 1.177E-06 2.830E-18
 ETOT 45  -397.87464460736     2.274E-13 3.043E-07 2.787E-18
 ETOT 46  -397.87464460736    -9.095E-13 5.440E-07 2.839E-18
 ETOT 47  -397.87464460736    -1.023E-12 1.419E-07 2.369E-18
 ETOT 48  -397.87464460737    -6.821E-13 2.541E-07 2.703E-18
 ETOT 49  -397.87464460736     5.684E-13 6.609E-08 2.363E-18
 ETOT 50  -397.87464460736    -5.684E-14 1.168E-07 1.822E-18
 ETOT 51  -397.87464460736     2.842E-13 3.078E-08 2.126E-18
 ETOT 52  -397.87464460736    -3.411E-13 5.472E-08 2.792E-18
 ETOT 53  -397.87464460736     0.000E+00 1.434E-08 2.612E-18
 ETOT 54  -397.87464460736     7.390E-13 2.500E-08 2.283E-18
 ETOT 55  -397.87464460736    -4.547E-13 6.678E-09 2.381E-18
 ETOT 56  -397.87464460737    -8.527E-13 1.176E-08 2.084E-18
 ETOT 57  -397.87464460736     7.958E-13 3.112E-09 1.371E-18
 ETOT 58  -397.87464460736     1.137E-13 5.328E-09 1.802E-18
 ETOT 59  -397.87464460736     5.116E-13 1.451E-09 2.219E-18
 ETOT 60  -397.87464460736    -2.842E-13 2.519E-09 1.809E-18
 ETOT 61  -397.87464460736     3.411E-13 6.772E-10 2.190E-18
 ETOT 62  -397.87464460736     3.411E-13 1.133E-09 1.595E-18
 ETOT 63  -397.87464460736    -1.251E-12 3.162E-10 1.688E-18
 ETOT 64  -397.87464460736     0.000E+00 5.379E-10 1.966E-18
 ETOT 65  -397.87464460737    -6.821E-13 1.477E-10 1.974E-18
 ETOT 66  -397.87464460736     6.821E-13 2.420E-10 2.044E-18
 ETOT 67  -397.87464460736     0.000E+00 6.896E-11 1.961E-18
 ETOT 68  -397.87464460736     2.274E-13 1.150E-10 2.653E-18
 ETOT 69  -397.87464460736     1.137E-13 3.219E-11 1.795E-18
 ETOT 70  -397.87464460736     2.274E-13 5.216E-11 1.773E-18
 ETOT 71  -397.87464460736     2.842E-13 1.503E-11 1.598E-18
 ETOT 72  -397.87464460736     1.819E-12 2.470E-11 1.979E-18
 ETOT 73  -397.87464460737    -3.865E-12 7.008E-12 1.915E-18
 ETOT 74  -397.87464460737    -1.705E-13 1.130E-11 2.548E-18
 ETOT 75  -397.87464460737     1.137E-13 3.268E-12 2.659E-18
 ETOT 76  -397.87464460737     2.274E-13 5.323E-12 2.853E-18
 ETOT 77  -397.87464460737    -3.411E-13 1.524E-12 2.241E-18
 ETOT 78  -397.87464460737    -1.137E-13 2.451E-12 2.260E-18
 ETOT 79  -397.87464460736     1.194E-12 7.103E-13 1.992E-18
 ETOT 80  -397.87464460737    -2.842E-13 1.150E-12 2.167E-18
 ETOT 81  -397.87464460736     1.705E-12 3.311E-13 1.978E-18
 ETOT 82  -397.87464460736     1.137E-13 5.316E-13 1.680E-18
 ETOT 83  -397.87464460736    -2.274E-13 1.543E-13 1.526E-18
 ETOT 84  -397.87464460736    -1.137E-13 2.486E-13 1.713E-18
 ETOT 85  -397.87464460736    -1.137E-13 7.193E-14 1.630E-18
 ETOT 86  -397.87464460736     1.137E-13 1.153E-13 1.341E-18
 ETOT 87  -397.87464460736    -4.547E-13 3.353E-14 1.526E-18
 ETOT 88  -397.87464460736    -2.274E-13 5.382E-14 2.211E-18
 ETOT 89  -397.87464460736    -3.979E-13 1.563E-14 1.837E-18
 ETOT 90  -397.87464460736    -5.684E-14 2.500E-14 2.033E-18
 ETOT 91  -397.87464460737    -4.547E-13 7.283E-15 1.120E-18
 ETOT 92  -397.87464460737    -2.274E-13 1.166E-14 1.769E-18
 ETOT 93  -397.87464460737     0.000E+00 3.394E-15 1.295E-18
 ETOT 94  -397.87464460737     2.274E-13 5.420E-15 2.031E-18
 ETOT 95  -397.87464460737    -2.274E-13 1.582E-15 1.501E-18
 ETOT 96  -397.87464460737     2.274E-13 2.526E-15 1.429E-18
 ETOT 97  -397.87464460737    -4.547E-13 7.373E-16 1.542E-18
 ETOT 98  -397.87464460737     3.411E-13 1.175E-15 1.682E-18
 ETOT 99  -397.87464460737    -1.137E-13 3.436E-16 1.527E-18
 ETOT  100  -397.87464460737     2.274E-13 5.510E-16 2.390E-18
 ETOT  101  -397.87464460737     2.274E-13 1.745E-16 1.320E-18
 ETOT  102  -397.87464460737    -2.274E-13 3.331E-16 1.461E-18
 ETOT  103  -397.87464460737     0.000E+00 1.054E-16 1.348E-18
 ETOT  104  -397.87464460737    -1.705E-13 2.014E-16 1.347E-18
 ETOT  105  -397.87464460737     2.842E-13 6.370E-17 1.940E-18
 ETOT  106  -397.87464460737    -1.137E-13 1.218E-16 1.701E-18
 ETOT  107  -397.87464460737     1.137E-13 3.849E-17 1.723E-18
 ETOT  108  -397.87464460737    -1.705E-13 7.362E-17 1.508E-18
 ETOT  109  -397.87464460737    -1.705E-13 2.326E-17 1.392E-18
 ETOT  110  -397.87464460737     4.547E-13 4.451E-17 1.409E-18
 ETOT  111  -397.87464460737    -1.137E-13 1.405E-17 1.228E-18
 ETOT  112  -397.87464460737    -2.274E-13 2.691E-17 1.455E-18
 ETOT  113  -397.87464460736     4.547E-13 8.493E-18 1.380E-18
 ETOT  114  -397.87464460737    -1.137E-13 1.627E-17 1.409E-18
 ETOT  115  -397.87464460737     0.000E+00 5.132E-18 1.771E-18
 ETOT  116  -397.87464460737    -1.137E-13 9.835E-18 1.399E-18
 ETOT  117  -397.87464460737    -1.137E-13 3.101E-18 1.418E-18
 ETOT  118  -397.87464460737     0.000E+00 5.946E-18 1.294E-18
 ETOT  119  -397.87464460737    -3.411E-13 1.874E-18 2.056E-18
 ETOT  120  -397.87464460737     0.000E+00 3.595E-18 1.424E-18
 ETOT  121  -397.87464460737     2.274E-13 1.132E-18 1.776E-18
 ETOT  122  -397.87464460737     3.411E-13 2.173E-18 1.431E-18
 ETOT  123  -397.87464460737    -1.137E-13 6.843E-19 1.443E-18
 ETOT  124  -397.87464460737    -4.547E-13 1.314E-18 2.262E-18
 ETOT  125  -397.87464460737     4.547E-13 4.135E-19 1.726E-18
 ETOT  126  -397.87464460737     0.000E+00 7.944E-19 1.398E-18
 ETOT  127  -397.87464460737    -2.274E-13 2.499E-19 1.254E-18
 ETOT  128  -397.87464460737     0.000E+00 4.803E-19 1.767E-18
 ETOT  129  -397.87464460737     1.137E-13 1.510E-19 1.456E-18
 ETOT  130  -397.87464460737     0.000E+00 2.903E-19 1.751E-18
 ETOT  131  -397.87464460737     2.274E-13 9.125E-20 1.077E-18
 ETOT  132  -397.87464460737     0.000E+00 1.755E-19 1.419E-18
 ETOT  133  -397.87464460737    -2.842E-13 5.514E-20 1.980E-18
 ETOT  134  -397.87464460737     5.684E-14 1.061E-19 1.142E-18
 ETOT  135  -397.87464460737     0.000E+00 3.332E-20 1.503E-18
 ETOT  136  -397.87464460737     2.274E-13 6.416E-20 1.374E-18
 ETOT  137  -397.87464460737    -3.411E-13 2.014E-20 1.420E-18
 ETOT  138  -397.87464460737     1.137E-13 3.879E-20 2.124E-18
 ETOT  139  -397.87464460737    -2.274E-13 1.217E-20 1.670E-18
 ETOT  140  -397.87464460737     4.547E-13 2.345E-20 1.254E-18
 ETOT  141  -397.87464460737    -1.137E-13 9.932E-21 1.578E-18

 At SCF step  141   max residual=  9.93E-21 < tolwfr=  1.00E-20 =>converged.

 Cartesian components of stress tensor (hartree/bohr^3)
  sigma(1 1)=  8.30748969E-03  sigma(3 2)=  0.00000000E+00
  sigma(2 2)=  8.30748969E-03  sigma(3 1)=  0.00000000E+00
  sigma(3 3)=  8.41659992E-03  sigma(2 1)=  0.00000000E+00


--- !ResultsGS
iteration_state: {dtset: 1, }
comment   : Summary of ground state results
lattice_vectors:
- [  7.7624317,   0.0000000,   0.0000000, ]
- [  0.0000000,   7.7624317,   0.0000000, ]
- [  0.0000000,   0.0000000,  22.8327384, ]
lattice_lengths: [   7.76243,    7.76243,   22.83274, ]
lattice_angles: [ 90.000,  90.000,  90.000, ] # degrees, (23, 13, 12)
lattice_volume:   1.3757945E+03
convergence: {deltae: -1.137E-13, res2:  1.578E-18, residm:  9.932E-21, diffor: null, }
etotal    :  -3.97874645E+02
entropy   :   0.00000000E+00
fermie    :   2.43833946E-02
cartesian_stress_tensor: # hartree/bohr^3
- [  8.30748969E-03,   0.00000000E+00,   0.00000000E+00, ]
- [  0.00000000E+00,   8.30748969E-03,   0.00000000E+00, ]
- [  0.00000000E+00,   0.00000000E+00,   8.41659992E-03, ]
pressure_GPa:  -2.4548E+02
xred      :
- [  5.0000E-01,   0.0000E+00,   3.8622E-01, Sn]
- [  0.0000E+00,   5.0000E-01,   6.1379E-01, Sn]
- [  5.0000E-01,   0.0000E+00,   6.1116E-01, Se]
- [  0.0000E+00,   5.0000E-01,   3.8884E-01, Se]
cartesian_forces: # hartree/bohr
- [ -0.00000000E+00,  -0.00000000E+00,  -1.96227344E-03, ]
- [ -0.00000000E+00,  -0.00000000E+00,   1.96227344E-03, ]
- [ -2.03250975E-31,  -0.00000000E+00,   1.40366497E-03, ]
- [  2.03250975E-31,  -0.00000000E+00,  -1.40366497E-03, ]
force_length_stats: {min:   1.40366497E-03, max:   1.96227344E-03, mean:   1.68296921E-03, }
...

 Integrated electronic density in atomic spheres:
 ------------------------------------------------
 Atom  Sphere_radius  Integrated_density
    1        2.00000         10.54021398
    2        2.00000         10.54021398
    3        2.00000         13.30548925
    4        2.00000         13.30548925
================================================================================

 ----iterations are completed or convergence reached----

 Mean square residual over all n,k,spin=   46.161E-22; max=  99.315E-22
 reduced coordinates (array xred) for    4 atoms
       0.500000000000      0.000000000000      0.386215000000
       0.000000000000      0.500000000000      0.613785000000
       0.500000000000      0.000000000000      0.611156000000
       0.000000000000      0.500000000000      0.388844000000
 rms dE/dt=  2.2489E-02; max dE/dt=  4.4804E-02; dE/dt below (all hartree)
    1       0.000000000000      0.000000000000      0.044804076240
    2       0.000000000000      0.000000000000     -0.044804076240
    3       0.000000000000      0.000000000000     -0.032049515070
    4      -0.000000000000      0.000000000000      0.032049515070

 cartesian coordinates (angstrom) at end:
    1      2.05385096425820     0.00000000000000     4.66646776026757
    2      0.00000000000000     2.05385096425820     7.41609702946761
    3      2.05385096425820     0.00000000000000     7.38433196663540
    4      0.00000000000000     2.05385096425820     4.69823282309979

 cartesian forces (hartree/bohr) at end:
    1     -0.00000000000000    -0.00000000000000    -0.00196227344198
    2     -0.00000000000000    -0.00000000000000     0.00196227344198
    3     -0.00000000000000    -0.00000000000000     0.00140366496818
    4      0.00000000000000    -0.00000000000000    -0.00140366496818
 frms,max,avg= 9.8495282E-04 1.9622734E-03   0.000E+00  0.000E+00  0.000E+00 h/b

 cartesian forces (eV/Angstrom) at end:
    1     -0.00000000000000    -0.00000000000000    -0.10090414893391
    2     -0.00000000000000    -0.00000000000000     0.10090414893391
    3     -0.00000000000000    -0.00000000000000     0.07217934869466
    4      0.00000000000000    -0.00000000000000    -0.07217934869466
 frms,max,avg= 5.0648306E-02 1.0090415E-01   0.000E+00  0.000E+00  0.000E+00 e/A
 length scales=  7.762431680422  7.762431680422  7.762431680422 bohr
              =  4.107701928516  4.107701928516  4.107701928516 angstroms
 prteigrs : about to open file Cs2TiI6o_DS1_EIG
 Fermi (or HOMO) energy (hartree) =   0.02438   Average Vxc (hartree)=  -0.22201
 Eigenvalues (hartree) for nkpt=  42  k points:
 kpt#   1, nband= 31, wtk=  0.01389, kpt=  0.0417  0.0417  0.1250 (reduced coord)
  -1.76350   -1.76276   -1.76232   -1.76201   -1.76008   -1.75826   -1.75768   -1.75696
  -1.75277   -1.75217   -0.77004   -0.76879   -0.76860   -0.76833   -0.76804   -0.76792
  -0.76775   -0.76761   -0.76721   -0.76706   -0.49976   -0.45736   -0.21075   -0.17787
  -0.12162   -0.11026   -0.10236   -0.06646   -0.05719   -0.00815    0.06866
 prteigrs : prtvol=0 or 1, do not print more k-points.


--- !EnergyTerms
iteration_state     : {dtset: 1, }
comment             : Components of total free energy in Hartree
kinetic             :  2.43015762136640E+02
hartree             :  3.37370958005290E+02
xc                  : -9.16571427266717E+01
Ewald energy        :  2.14534245431711E+01
psp_core            :  5.42393478211481E+00
local_psp           : -7.70038097755508E+02
non_local_psp       : -1.43406522549162E+02
VdWaals_dft_d       : -3.69610432398657E-02
total_energy        : -3.97874644607365E+02
total_energy_eV     : -1.08267196825721E+04
band_energy         : -5.41595939567077E+01
...


 Cartesian components of stress tensor (hartree/bohr^3)
  sigma(1 1)=  8.30748969E-03  sigma(3 2)=  0.00000000E+00
  sigma(2 2)=  8.30748969E-03  sigma(3 1)=  0.00000000E+00
  sigma(3 3)=  8.41659992E-03  sigma(2 1)=  0.00000000E+00

-Cartesian components of stress tensor (GPa)         [Pressure= -2.4548E+02 GPa]
- sigma(1 1)=  2.44414744E+02  sigma(3 2)=  0.00000000E+00
- sigma(2 2)=  2.44414744E+02  sigma(3 1)=  0.00000000E+00
- sigma(3 3)=  2.47624877E+02  sigma(2 1)=  0.00000000E+00

================================================================================
== DATASET  2 ==================================================================
-   mpi_nproc: 6, omp_nthreads: -1 (-1 if OMP is not activated)


--- !DatasetInfo
iteration_state: {dtset: 2, }
dimensions: {natom: 4, nkpt: 42, mband: 100, nsppol: 1, nspinor: 1, nspden: 1, mpw: 7039, }
cutoff_energies: {ecut:  22.5, pawecutdg:  -1.0, }
electrons: {nelect:   6.00000000E+01, charge:   0.00000000E+00, occopt:   1.00000000E+00, tsmear:   1.00000000E-02, }
meta: {optdriver: 0, ionmov: 0, optcell: 0, iscf: -2, paral_kgb: 0, }
...

 mkfilename : getwfk/=0, take file _WFK from output of DATASET   1.

 mkfilename : getden/=0, take file _DEN from output of DATASET   1.

 Exchange-correlation functional for the present dataset will be:
  GGA: Perdew-Burke-Ernzerhof functional - ixc=11
 Citation for XC functional:
  J.P.Perdew, K.Burke, M.Ernzerhof, PRL 77, 3865 (1996)

 Real(R)+Recip(G) space primitive vectors, cartesian coordinates (Bohr,Bohr^-1):
 R(1)=  7.7624317  0.0000000  0.0000000  G(1)=  0.1288256  0.0000000  0.0000000
 R(2)=  0.0000000  7.7624317  0.0000000  G(2)=  0.0000000  0.1288256  0.0000000
 R(3)=  0.0000000  0.0000000 22.8327384  G(3)=  0.0000000  0.0000000  0.0437968
 Unit cell volume ucvol=  1.3757945E+03 bohr^3
 Angles (23,13,12)=  9.00000000E+01  9.00000000E+01  9.00000000E+01 degrees

 getcut: wavevector=  0.0000  0.0000  0.0000  ngfft=  36  36 100
         ecut(hartree)=     22.500   => boxcut(ratio)=   2.05109
--------------------------------------------------------------------------------

-inwffil : will read wavefunctions from disk file Cs2TiI6o_DS1_WFK

================================================================================
 prteigrs : about to open file Cs2TiI6o_DS2_EIG
 Non-SCF case, kpt    1 (  0.04167  0.04167  0.12500), residuals and eigenvalues=
  4.12E-21  2.05E-21  1.78E-21  2.00E-21  2.30E-21  7.74E-22  4.41E-21  2.25E-21
  2.31E-21  2.29E-21  7.81E-21  2.33E-21  2.41E-21  1.96E-21  3.30E-21  2.49E-21
  6.78E-21  7.39E-21  7.37E-21  7.19E-21  2.43E-21  2.53E-21  1.76E-21  3.43E-21
  5.31E-21  1.53E-21  1.76E-21  1.32E-21  3.34E-21  1.22E-21  7.05E-21  2.07E-21
  9.57E-21  7.03E-21  4.32E-21  7.40E-21  6.65E-21  7.55E-21  5.96E-21  6.32E-21
  5.33E-21  4.40E-21  3.34E-21  4.96E-21  4.15E-21  6.79E-21  6.01E-21  6.43E-21
  7.07E-21  5.33E-21  4.20E-21  8.13E-21  3.03E-21  3.26E-21  4.48E-21  4.46E-21
  4.84E-21  4.39E-21  3.75E-21  3.85E-21  5.99E-21  7.70E-21  9.67E-21  5.92E-21
  3.93E-21  7.11E-21  5.23E-21  5.13E-21  4.47E-21  4.71E-21  5.20E-21  6.49E-21
  6.29E-21  7.76E-21  8.01E-21  2.52E-21  5.52E-21  7.90E-21  8.16E-21  7.63E-21
  4.61E-21  5.23E-21  7.57E-21  6.79E-21  9.83E-21  3.44E-21  6.88E-21  8.83E-21
  7.73E-21  6.87E-21  4.02E-21  2.91E-21  6.19E-21  7.63E-21  5.01E-21  5.60E-21
  8.77E-21  5.58E-21  1.27E-13  4.85E-15
 -1.7635E+00 -1.7628E+00 -1.7623E+00 -1.7620E+00 -1.7601E+00 -1.7583E+00
 -1.7577E+00 -1.7570E+00 -1.7528E+00 -1.7522E+00 -7.7004E-01 -7.6879E-01
 -7.6860E-01 -7.6833E-01 -7.6804E-01 -7.6792E-01 -7.6775E-01 -7.6761E-01
 -7.6721E-01 -7.6706E-01 -4.9976E-01 -4.5736E-01 -2.1075E-01 -1.7787E-01
 -1.2162E-01 -1.1026E-01 -1.0236E-01 -6.6459E-02 -5.7188E-02 -8.1504E-03
  6.8657E-02  1.4433E-01  1.5618E-01  1.8652E-01  2.0079E-01  2.0796E-01
  2.3043E-01  2.3267E-01  2.3338E-01  2.4351E-01  2.9483E-01  3.0011E-01
  3.1101E-01  3.7592E-01  3.8693E-01  4.0198E-01  4.0911E-01  4.2571E-01
  4.2904E-01  4.4353E-01  4.6012E-01  4.6813E-01  4.8035E-01  4.8335E-01
  4.8562E-01  5.1179E-01  5.1862E-01  5.4517E-01  5.6137E-01  5.6303E-01
  5.6508E-01  5.9480E-01  5.9505E-01  6.0248E-01  6.2220E-01  6.3219E-01
  6.3799E-01  6.6103E-01  6.7660E-01  6.8695E-01  7.2031E-01  7.2654E-01
  7.4189E-01  7.5860E-01  7.7433E-01  7.9007E-01  7.9744E-01  7.9795E-01
  8.0149E-01  8.1673E-01  8.3089E-01  8.4422E-01  8.5420E-01  8.6393E-01
  8.6570E-01  8.7839E-01  8.7851E-01  8.8360E-01  8.9053E-01  8.9407E-01
  8.9792E-01  9.1130E-01  9.2927E-01  9.3601E-01  9.3734E-01  9.4693E-01
  9.5171E-01  9.6231E-01  9.8731E-01  9.9467E-01
  prteigrs : nnsclo,ikpt=  200    1 max resid (incl. the buffer)=  1.26610E-13
 prteigrs : prtvol=0 or 1, do not print more k-points.

  prteigrs : nnsclo,ikpt=  200    2 max resid (incl. the buffer)=  1.87829E-10
  prteigrs : nnsclo,ikpt=  200    3 max resid (incl. the buffer)=  6.20148E-07
  prteigrs : nnsclo,ikpt=  200    4 max resid (incl. the buffer)=  1.86886E-11
  prteigrs : nnsclo,ikpt=  200    5 max resid (incl. the buffer)=  1.16259E-13
  prteigrs : nnsclo,ikpt=  200    6 max resid (incl. the buffer)=  5.56033E-09
  prteigrs : nnsclo,ikpt=  200    7 max resid (incl. the buffer)=  9.52404E-09
  prteigrs : nnsclo,ikpt=  200    8 max resid (incl. the buffer)=  8.05256E-16
  prteigrs : nnsclo,ikpt=  200    9 max resid (incl. the buffer)=  5.16136E-11
  prteigrs : nnsclo,ikpt=  200   10 max resid (incl. the buffer)=  4.74436E-07
  prteigrs : nnsclo,ikpt=  200   11 max resid (incl. the buffer)=  1.51319E-18
  prteigrs : nnsclo,ikpt=  200   12 max resid (incl. the buffer)=  2.13367E-08
  prteigrs : nnsclo,ikpt=  200   13 max resid (incl. the buffer)=  7.63589E-10
  prteigrs : nnsclo,ikpt=  200   14 max resid (incl. the buffer)=  2.48549E-11
  prteigrs : nnsclo,ikpt=  200   15 max resid (incl. the buffer)=  1.96326E-06
  prteigrs : nnsclo,ikpt=  200   16 max resid (incl. the buffer)=  7.90043E-10
  prteigrs : nnsclo,ikpt=  200   17 max resid (incl. the buffer)=  1.80951E-12
  prteigrs : nnsclo,ikpt=  200   18 max resid (incl. the buffer)=  6.26857E-13
  prteigrs : nnsclo,ikpt=  200   19 max resid (incl. the buffer)=  2.39730E-08
  prteigrs : nnsclo,ikpt=  200   20 max resid (incl. the buffer)=  1.83580E-09
  prteigrs : nnsclo,ikpt=  200   21 max resid (incl. the buffer)=  2.78533E-09
  prteigrs : nnsclo,ikpt=  200   22 max resid (incl. the buffer)=  2.86240E-11
  prteigrs : nnsclo,ikpt=  200   23 max resid (incl. the buffer)=  1.00531E-09
  prteigrs : nnsclo,ikpt=  200   24 max resid (incl. the buffer)=  2.79363E-09
  prteigrs : nnsclo,ikpt=  200   25 max resid (incl. the buffer)=  7.87696E-14
  prteigrs : nnsclo,ikpt=  200   26 max resid (incl. the buffer)=  7.58239E-15
  prteigrs : nnsclo,ikpt=  200   27 max resid (incl. the buffer)=  5.26636E-07
  prteigrs : nnsclo,ikpt=  200   28 max resid (incl. the buffer)=  1.56235E-07
  prteigrs : nnsclo,ikpt=  200   29 max resid (incl. the buffer)=  1.55551E-10
  prteigrs : nnsclo,ikpt=  200   30 max resid (incl. the buffer)=  4.85165E-10
  prteigrs : nnsclo,ikpt=  200   31 max resid (incl. the buffer)=  4.57678E-07
  prteigrs : nnsclo,ikpt=  200   32 max resid (incl. the buffer)=  1.52465E-09
  prteigrs : nnsclo,ikpt=  200   33 max resid (incl. the buffer)=  9.03947E-13
  prteigrs : nnsclo,ikpt=  200   34 max resid (incl. the buffer)=  8.63217E-16
  prteigrs : nnsclo,ikpt=  200   35 max resid (incl. the buffer)=  2.18287E-12
  prteigrs : nnsclo,ikpt=  200   36 max resid (incl. the buffer)=  8.56570E-10
  prteigrs : nnsclo,ikpt=  200   37 max resid (incl. the buffer)=  5.66602E-06
  prteigrs : nnsclo,ikpt=  200   38 max resid (incl. the buffer)=  1.88389E-07
  prteigrs : nnsclo,ikpt=  200   39 max resid (incl. the buffer)=  3.83880E-13
  prteigrs : nnsclo,ikpt=  200   40 max resid (incl. the buffer)=  4.93239E-08
  prteigrs : nnsclo,ikpt=  200   41 max resid (incl. the buffer)=  2.40379E-11
  prteigrs : nnsclo,ikpt=  200   42 max resid (incl. the buffer)=  1.13793E-12


--- !ResultsGS
iteration_state: {dtset: 2, }
comment   : Summary of ground state results
lattice_vectors:
- [  7.7624317,   0.0000000,   0.0000000, ]
- [  0.0000000,   7.7624317,   0.0000000, ]
- [  0.0000000,   0.0000000,  22.8327384, ]
lattice_lengths: [   7.76243,    7.76243,   22.83274, ]
lattice_angles: [ 90.000,  90.000,  90.000, ] # degrees, (23, 13, 12)
lattice_volume:   1.3757945E+03
convergence: {deltae:  0.000E+00, res2:  0.000E+00, residm:  9.998E-21, diffor:  0.000E+00, }
etotal    :  -3.97874645E+02
entropy   :   0.00000000E+00
fermie    :   2.43833946E-02
cartesian_stress_tensor: null
pressure_GPa: null
xred      :
- [  5.0000E-01,   0.0000E+00,   3.8622E-01, Sn]
- [  0.0000E+00,   5.0000E-01,   6.1379E-01, Sn]
- [  5.0000E-01,   0.0000E+00,   6.1116E-01, Se]
- [  0.0000E+00,   5.0000E-01,   3.8884E-01, Se]
cartesian_forces: null
force_length_stats: {min: null, max: null, mean: null, }
...

 Integrated electronic density in atomic spheres:
 ------------------------------------------------
 Atom  Sphere_radius  Integrated_density
    1        2.00000         10.54021398
    2        2.00000         10.54021398
    3        2.00000         13.30548925
    4        2.00000         13.30548925
================================================================================

 ----iterations are completed or convergence reached----

 Mean square residual over all n,k,spin=   52.888E-22; max=  99.979E-22
 reduced coordinates (array xred) for    4 atoms
       0.500000000000      0.000000000000      0.386215000000
       0.000000000000      0.500000000000      0.613785000000
       0.500000000000      0.000000000000      0.611156000000
       0.000000000000      0.500000000000      0.388844000000

 cartesian coordinates (angstrom) at end:
    1      2.05385096425820     0.00000000000000     4.66646776026757
    2      0.00000000000000     2.05385096425820     7.41609702946761
    3      2.05385096425820     0.00000000000000     7.38433196663540
    4      0.00000000000000     2.05385096425820     4.69823282309979
 length scales=  7.762431680422  7.762431680422  7.762431680422 bohr
              =  4.107701928516  4.107701928516  4.107701928516 angstroms
 prteigrs : about to open file Cs2TiI6o_DS2_EIG
 Eigenvalues (hartree) for nkpt=  42  k points:
 kpt#   1, nband=100, wtk=  0.01389, kpt=  0.0417  0.0417  0.1250 (reduced coord)
  -1.76350   -1.76276   -1.76232   -1.76201   -1.76008   -1.75826   -1.75768   -1.75696
  -1.75277   -1.75217   -0.77004   -0.76879   -0.76860   -0.76833   -0.76804   -0.76792
  -0.76775   -0.76761   -0.76721   -0.76706   -0.49976   -0.45736   -0.21075   -0.17787
  -0.12162   -0.11026   -0.10236   -0.06646   -0.05719   -0.00815    0.06866    0.14433
   0.15618    0.18652    0.20079    0.20796    0.23043    0.23267    0.23338    0.24351
   0.29483    0.30011    0.31101    0.37592    0.38693    0.40198    0.40911    0.42571
   0.42904    0.44353    0.46012    0.46813    0.48035    0.48335    0.48562    0.51179
   0.51862    0.54517    0.56137    0.56303    0.56508    0.59480    0.59505    0.60248
   0.62220    0.63219    0.63799    0.66103    0.67660    0.68695    0.72031    0.72654
   0.74189    0.75860    0.77433    0.79007    0.79744    0.79795    0.80149    0.81673
   0.83089    0.84422    0.85420    0.86393    0.86570    0.87839    0.87851    0.88360
   0.89053    0.89407    0.89792    0.91130    0.92927    0.93601    0.93734    0.94693
   0.95171    0.96231    0.98731    0.99467
 prteigrs : prtvol=0 or 1, do not print more k-points.


================================================================================
== DATASET  3 ==================================================================
-   mpi_nproc: 6, omp_nthreads: -1 (-1 if OMP is not activated)


--- !DatasetInfo
iteration_state: {dtset: 3, }
dimensions: {natom: 4, nkpt: 288, mband: 100, nsppol: 1, nspinor: 1, nspden: 1, mpw: 7039, }
cutoff_energies: {ecut:  22.5, pawecutdg:  -1.0, }
electrons: {nelect:   6.00000000E+01, charge:   0.00000000E+00, occopt:   1.00000000E+00, tsmear:   1.00000000E-02, }
meta: {optdriver: 0, ionmov: 0, optcell: 0, iscf: -2, paral_kgb: 0, }
...

 mkfilename : getwfk/=0, take file _WFK from output of DATASET   2.

 mkfilename : getden/=0, take file _DEN from output of DATASET   1.

 Exchange-correlation functional for the present dataset will be:
  GGA: Perdew-Burke-Ernzerhof functional - ixc=11
 Citation for XC functional:
  J.P.Perdew, K.Burke, M.Ernzerhof, PRL 77, 3865 (1996)

 Real(R)+Recip(G) space primitive vectors, cartesian coordinates (Bohr,Bohr^-1):
 R(1)=  7.7624317  0.0000000  0.0000000  G(1)=  0.1288256  0.0000000  0.0000000
 R(2)=  0.0000000  7.7624317  0.0000000  G(2)=  0.0000000  0.1288256  0.0000000
 R(3)=  0.0000000  0.0000000 22.8327384  G(3)=  0.0000000  0.0000000  0.0437968
 Unit cell volume ucvol=  1.3757945E+03 bohr^3
 Angles (23,13,12)=  9.00000000E+01  9.00000000E+01  9.00000000E+01 degrees

 getcut: wavevector=  0.0000  0.0000  0.0000  ngfft=  36  36 100
         ecut(hartree)=     22.500   => boxcut(ratio)=   2.05109
--------------------------------------------------------------------------------

-inwffil : will read wavefunctions from disk file Cs2TiI6o_DS2_WFK

================================================================================
 prteigrs : about to open file Cs2TiI6o_DS3_EIG
 Non-SCF case, kpt    1 (  0.04167  0.04167  0.12500), residuals and eigenvalues=
  4.12E-21  2.05E-21  1.78E-21  2.00E-21  2.30E-21  7.74E-22  4.41E-21  2.25E-21
  2.31E-21  2.29E-21  7.81E-21  2.33E-21  2.41E-21  1.96E-21  3.30E-21  2.49E-21
  6.78E-21  7.39E-21  7.37E-21  7.19E-21  2.43E-21  2.53E-21  1.76E-21  3.43E-21
  5.31E-21  1.53E-21  1.76E-21  1.32E-21  3.34E-21  1.22E-21  7.05E-21  2.07E-21
  9.57E-21  7.03E-21  4.32E-21  7.40E-21  6.65E-21  7.55E-21  5.96E-21  6.32E-21
  5.33E-21  4.40E-21  3.34E-21  4.96E-21  4.15E-21  6.79E-21  6.01E-21  6.43E-21
  7.07E-21  5.33E-21  4.20E-21  8.13E-21  3.03E-21  3.26E-21  4.48E-21  4.46E-21
  4.84E-21  4.39E-21  3.75E-21  3.85E-21  5.99E-21  7.70E-21  9.67E-21  5.92E-21
  3.93E-21  7.11E-21  5.23E-21  5.13E-21  4.47E-21  4.71E-21  5.20E-21  6.49E-21
  6.29E-21  7.76E-21  8.01E-21  2.52E-21  5.52E-21  7.90E-21  8.16E-21  7.63E-21
  4.61E-21  5.23E-21  7.57E-21  6.79E-21  9.83E-21  3.44E-21  6.88E-21  8.83E-21
  7.73E-21  6.87E-21  4.02E-21  2.91E-21  6.19E-21  7.63E-21  5.01E-21  5.60E-21
  8.77E-21  5.58E-21  2.97E-14  1.99E-15
 -1.7635E+00 -1.7628E+00 -1.7623E+00 -1.7620E+00 -1.7601E+00 -1.7583E+00
 -1.7577E+00 -1.7570E+00 -1.7528E+00 -1.7522E+00 -7.7004E-01 -7.6879E-01
 -7.6860E-01 -7.6833E-01 -7.6804E-01 -7.6792E-01 -7.6775E-01 -7.6761E-01
 -7.6721E-01 -7.6706E-01 -4.9976E-01 -4.5736E-01 -2.1075E-01 -1.7787E-01
 -1.2162E-01 -1.1026E-01 -1.0236E-01 -6.6459E-02 -5.7188E-02 -8.1504E-03
  6.8657E-02  1.4433E-01  1.5618E-01  1.8652E-01  2.0079E-01  2.0796E-01
  2.3043E-01  2.3267E-01  2.3338E-01  2.4351E-01  2.9483E-01  3.0011E-01
  3.1101E-01  3.7592E-01  3.8693E-01  4.0198E-01  4.0911E-01  4.2571E-01
  4.2904E-01  4.4353E-01  4.6012E-01  4.6813E-01  4.8035E-01  4.8335E-01
  4.8562E-01  5.1179E-01  5.1862E-01  5.4517E-01  5.6137E-01  5.6303E-01
  5.6508E-01  5.9480E-01  5.9505E-01  6.0248E-01  6.2220E-01  6.3219E-01
  6.3799E-01  6.6103E-01  6.7660E-01  6.8695E-01  7.2031E-01  7.2654E-01
  7.4189E-01  7.5860E-01  7.7433E-01  7.9007E-01  7.9744E-01  7.9795E-01
  8.0149E-01  8.1673E-01  8.3089E-01  8.4422E-01  8.5420E-01  8.6393E-01
  8.6570E-01  8.7839E-01  8.7851E-01  8.8360E-01  8.9053E-01  8.9407E-01
  8.9792E-01  9.1130E-01  9.2927E-01  9.3601E-01  9.3734E-01  9.4693E-01
  9.5171E-01  9.6231E-01  9.8731E-01  9.9467E-01
  prteigrs : nnsclo,ikpt=  200    1 max resid (incl. the buffer)=  2.97465E-14
 prteigrs : prtvol=0 or 1, do not print more k-points.

  prteigrs : nnsclo,ikpt=  200    2 max resid (incl. the buffer)=  1.50185E-10
  prteigrs : nnsclo,ikpt=  200    3 max resid (incl. the buffer)=  8.57182E-07
  prteigrs : nnsclo,ikpt=  200    4 max resid (incl. the buffer)=  1.02722E-11
  prteigrs : nnsclo,ikpt=  200    5 max resid (incl. the buffer)=  2.53851E-14
  prteigrs : nnsclo,ikpt=  200    6 max resid (incl. the buffer)=  5.90814E-09
  prteigrs : nnsclo,ikpt=  200    7 max resid (incl. the buffer)=  5.90814E-09
  prteigrs : nnsclo,ikpt=  200    8 max resid (incl. the buffer)=  2.53851E-14
  prteigrs : nnsclo,ikpt=  200    9 max resid (incl. the buffer)=  1.02722E-11
  prteigrs : nnsclo,ikpt=  200   10 max resid (incl. the buffer)=  8.57182E-07
  prteigrs : nnsclo,ikpt=  200   11 max resid (incl. the buffer)=  1.50185E-10
  prteigrs : nnsclo,ikpt=  200   12 max resid (incl. the buffer)=  2.97465E-14
  prteigrs : nnsclo,ikpt=  200   13 max resid (incl. the buffer)=  1.50185E-10
  prteigrs : nnsclo,ikpt=  200   14 max resid (incl. the buffer)=  7.63807E-09
  prteigrs : nnsclo,ikpt=  200   15 max resid (incl. the buffer)=  8.58864E-16
  prteigrs : nnsclo,ikpt=  200   16 max resid (incl. the buffer)=  3.91303E-11
  prteigrs : nnsclo,ikpt=  200   17 max resid (incl. the buffer)=  2.07651E-07
  prteigrs : nnsclo,ikpt=  200   18 max resid (incl. the buffer)=  1.42222E-18
  prteigrs : nnsclo,ikpt=  200   19 max resid (incl. the buffer)=  1.42222E-18
  prteigrs : nnsclo,ikpt=  200   20 max resid (incl. the buffer)=  2.07651E-07
  prteigrs : nnsclo,ikpt=  200   21 max resid (incl. the buffer)=  3.91303E-11
  prteigrs : nnsclo,ikpt=  200   22 max resid (incl. the buffer)=  8.58865E-16
  prteigrs : nnsclo,ikpt=  200   23 max resid (incl. the buffer)=  7.63807E-09
  prteigrs : nnsclo,ikpt=  200   24 max resid (incl. the buffer)=  1.50185E-10
  prteigrs : nnsclo,ikpt=  200   25 max resid (incl. the buffer)=  8.57182E-07
  prteigrs : nnsclo,ikpt=  200   26 max resid (incl. the buffer)=  8.58642E-16
  prteigrs : nnsclo,ikpt=  200   27 max resid (incl. the buffer)=  2.26277E-08
  prteigrs : nnsclo,ikpt=  200   28 max resid (incl. the buffer)=  8.74351E-10
  prteigrs : nnsclo,ikpt=  200   29 max resid (incl. the buffer)=  1.31105E-11
  prteigrs : nnsclo,ikpt=  200   30 max resid (incl. the buffer)=  2.87614E-06
[...]
P           mkmem2          7
P           mkmem3         48
P           mkmem4         48
P           mkmem5         48
P           mkmem6         48
P          mkqmem1          7
P          mkqmem2          7
P          mkqmem3         48
P          mkqmem4         48
P          mkqmem5         48
P          mkqmem6         48
P          mk1mem1          7
P          mk1mem2          7
P          mk1mem3         48
P          mk1mem4         48
P          mk1mem5         48
P          mk1mem6         48
            natom           4
            nband1         31
            nband2        100
            nband3        100
            nband4        100
            nband5        100
            nband6        100
           nbdbuf1          0
           nbdbuf2          2
           nbdbuf3          2
           nbdbuf4          2
           nbdbuf5          2
           nbdbuf6          2
           ndtset           6
            ngfft          36      36     100
             nkpt1         42
             nkpt2         42
             nkpt3        288
             nkpt4        288
             nkpt5        288
             nkpt6        288
            nline1          4
            nline2          4
            nline3          4
            nline4          0
            nline5          0
            nline6          0
             nqpt1          0
             nqpt2          0
             nqpt3          0
             nqpt4          1
             nqpt5          1
             nqpt6          1
            nstep1        400
            nstep2        200
            nstep3        200
            nstep4          1
            nstep5          1
            nstep6          1
             nsym          16
           ntypat           2
              occ1     2.000000  2.000000  2.000000  2.000000  2.000000  2.000000
                       2.000000  2.000000  2.000000  2.000000  2.000000  2.000000
                       2.000000  2.000000  2.000000  2.000000  2.000000  2.000000
                       2.000000  2.000000  2.000000  2.000000  2.000000  2.000000
                       2.000000  2.000000  2.000000  2.000000  2.000000  2.000000
                       0.000000
              occ4     2.000000  2.000000  2.000000  2.000000  2.000000  2.000000
                       2.000000  2.000000  2.000000  2.000000  2.000000  2.000000
                       2.000000  2.000000  2.000000  2.000000  2.000000  2.000000
                       2.000000  2.000000  2.000000  2.000000  2.000000  2.000000
                       2.000000  2.000000  2.000000  2.000000  2.000000  2.000000
                       0.000000  0.000000  0.000000  0.000000  0.000000  0.000000
                       0.000000  0.000000  0.000000  0.000000  0.000000  0.000000
                       0.000000  0.000000  0.000000  0.000000  0.000000  0.000000
                       0.000000  0.000000  0.000000  0.000000  0.000000  0.000000
                       0.000000  0.000000  0.000000  0.000000  0.000000  0.000000
                       0.000000  0.000000  0.000000  0.000000  0.000000  0.000000
                       0.000000  0.000000  0.000000  0.000000  0.000000  0.000000
                       0.000000  0.000000  0.000000  0.000000  0.000000  0.000000
                       0.000000  0.000000  0.000000  0.000000  0.000000  0.000000
                       0.000000  0.000000  0.000000  0.000000  0.000000  0.000000
                       0.000000  0.000000  0.000000  0.000000  0.000000  0.000000
                       0.000000  0.000000  0.000000  0.000000
              occ5     2.000000  2.000000  2.000000  2.000000  2.000000  2.000000
                       2.000000  2.000000  2.000000  2.000000  2.000000  2.000000
                       2.000000  2.000000  2.000000  2.000000  2.000000  2.000000
                       2.000000  2.000000  2.000000  2.000000  2.000000  2.000000
                       2.000000  2.000000  2.000000  2.000000  2.000000  2.000000
                       0.000000  0.000000  0.000000  0.000000  0.000000  0.000000
                       0.000000  0.000000  0.000000  0.000000  0.000000  0.000000
                       0.000000  0.000000  0.000000  0.000000  0.000000  0.000000
                       0.000000  0.000000  0.000000  0.000000  0.000000  0.000000
                       0.000000  0.000000  0.000000  0.000000  0.000000  0.000000
                       0.000000  0.000000  0.000000  0.000000  0.000000  0.000000
                       0.000000  0.000000  0.000000  0.000000  0.000000  0.000000
                       0.000000  0.000000  0.000000  0.000000  0.000000  0.000000
                       0.000000  0.000000  0.000000  0.000000  0.000000  0.000000
                       0.000000  0.000000  0.000000  0.000000  0.000000  0.000000
                       0.000000  0.000000  0.000000  0.000000  0.000000  0.000000
                       0.000000  0.000000  0.000000  0.000000
              occ6     2.000000  2.000000  2.000000  2.000000  2.000000  2.000000
                       2.000000  2.000000  2.000000  2.000000  2.000000  2.000000
                       2.000000  2.000000  2.000000  2.000000  2.000000  2.000000
                       2.000000  2.000000  2.000000  2.000000  2.000000  2.000000
                       2.000000  2.000000  2.000000  2.000000  2.000000  2.000000
                       0.000000  0.000000  0.000000  0.000000  0.000000  0.000000
                       0.000000  0.000000  0.000000  0.000000  0.000000  0.000000
                       0.000000  0.000000  0.000000  0.000000  0.000000  0.000000
                       0.000000  0.000000  0.000000  0.000000  0.000000  0.000000
                       0.000000  0.000000  0.000000  0.000000  0.000000  0.000000
                       0.000000  0.000000  0.000000  0.000000  0.000000  0.000000
                       0.000000  0.000000  0.000000  0.000000  0.000000  0.000000
                       0.000000  0.000000  0.000000  0.000000  0.000000  0.000000
                       0.000000  0.000000  0.000000  0.000000  0.000000  0.000000
                       0.000000  0.000000  0.000000  0.000000  0.000000  0.000000
                       0.000000  0.000000  0.000000  0.000000  0.000000  0.000000
                       0.000000  0.000000  0.000000  0.000000
        optdriver1          0
        optdriver2          0
        optdriver3          0
        optdriver4          1
        optdriver5          1
        optdriver6          1
            prtwf1          1
            prtwf2          1
            prtwf3          1
            prtwf4          3
            prtwf5          3
            prtwf6          3
            rfdir1          0       0       0
            rfdir2          0       0       0
            rfdir3          0       0       0
            rfdir4          1       0       0
            rfdir5          0       1       0
            rfdir6          0       0       1
           rfelfd1          0
           rfelfd2          0
           rfelfd3          0
           rfelfd4          2
           rfelfd5          2
           rfelfd6          2
            rprim      1.0000000000E+00  0.0000000000E+00  0.0000000000E+00
                       0.0000000000E+00  1.0000000000E+00  0.0000000000E+00
                       0.0000000000E+00  0.0000000000E+00  2.9414414678E+00
           shiftk      5.00000000E-01  5.00000000E-01  5.00000000E-01
          spgroup         129
           strten1     8.3074896890E-03  8.3074896890E-03  8.4165999153E-03
                       0.0000000000E+00  0.0000000000E+00  0.0000000000E+00
           symrel      1  0  0   0  1  0   0  0  1      -1  0  0   0 -1  0   0  0 -1
                      -1  0  0   0  1  0   0  0 -1       1  0  0   0 -1  0   0  0  1
                      -1  0  0   0 -1  0   0  0  1       1  0  0   0  1  0   0  0 -1
                       1  0  0   0 -1  0   0  0 -1      -1  0  0   0  1  0   0  0  1
                       0  1  0   1  0  0   0  0  1       0 -1  0  -1  0  0   0  0 -1
                       0 -1  0   1  0  0   0  0 -1       0  1  0  -1  0  0   0  0  1
                       0 -1  0  -1  0  0   0  0  1       0  1  0   1  0  0   0  0 -1
                       0  1  0  -1  0  0   0  0 -1       0 -1  0   1  0  0   0  0  1
            tnons      0.0000000  0.0000000  0.0000000     0.5000000  0.5000000  0.0000000
                       0.5000000  0.5000000  0.0000000     0.0000000  0.0000000  0.0000000
                       0.0000000  0.0000000  0.0000000     0.5000000  0.5000000  0.0000000
                       0.5000000  0.5000000  0.0000000     0.0000000  0.0000000  0.0000000
                       0.5000000  0.5000000  0.0000000     0.0000000  0.0000000  0.0000000
                       0.0000000  0.0000000  0.0000000     0.5000000  0.5000000  0.0000000
                       0.5000000  0.5000000  0.0000000     0.0000000  0.0000000  0.0000000
                       0.0000000  0.0000000  0.0000000     0.5000000  0.5000000  0.0000000
           tolwfr      1.00000000E-20
            typat      1  1  2  2
           vdw_xc           5
              wtk1       0.01389    0.02778    0.02778    0.02778    0.02778    0.02778
                         0.01389    0.02778    0.02778    0.02778    0.02778    0.01389
                         0.02778    0.02778    0.02778    0.01389    0.02778    0.02778
                         0.01389    0.02778    0.01389    0.01389    0.02778    0.02778
                         0.02778    0.02778    0.02778    0.01389    0.02778    0.02778
                         0.02778    0.02778    0.01389    0.02778    0.02778    0.02778
                         0.01389    0.02778    0.02778    0.01389    0.02778    0.01389
              wtk2       0.01389    0.02778    0.02778    0.02778    0.02778    0.02778
                         0.01389    0.02778    0.02778    0.02778    0.02778    0.01389
                         0.02778    0.02778    0.02778    0.01389    0.02778    0.02778
                         0.01389    0.02778    0.01389    0.01389    0.02778    0.02778
                         0.02778    0.02778    0.02778    0.01389    0.02778    0.02778
                         0.02778    0.02778    0.01389    0.02778    0.02778    0.02778
                         0.01389    0.02778    0.02778    0.01389    0.02778    0.01389
              wtk3       0.00347    0.00347    0.00347    0.00347    0.00347    0.00347
                         0.00347    0.00347    0.00347    0.00347    0.00347    0.00347
                         0.00347    0.00347    0.00347    0.00347    0.00347    0.00347
                         0.00347    0.00347    0.00347    0.00347    0.00347    0.00347
                         0.00347    0.00347    0.00347    0.00347    0.00347    0.00347
                         0.00347    0.00347    0.00347    0.00347    0.00347    0.00347
                         0.00347    0.00347    0.00347    0.00347    0.00347    0.00347
                         0.00347    0.00347    0.00347    0.00347    0.00347    0.00347
                         0.00347    0.00347
              wtk4       0.00347    0.00347    0.00347    0.00347    0.00347    0.00347
                         0.00347    0.00347    0.00347    0.00347    0.00347    0.00347
                         0.00347    0.00347    0.00347    0.00347    0.00347    0.00347
                         0.00347    0.00347    0.00347    0.00347    0.00347    0.00347
                         0.00347    0.00347    0.00347    0.00347    0.00347    0.00347
                         0.00347    0.00347    0.00347    0.00347    0.00347    0.00347
                         0.00347    0.00347    0.00347    0.00347    0.00347    0.00347
                         0.00347    0.00347    0.00347    0.00347    0.00347    0.00347
                         0.00347    0.00347
              wtk5       0.00347    0.00347    0.00347    0.00347    0.00347    0.00347
                         0.00347    0.00347    0.00347    0.00347    0.00347    0.00347
                         0.00347    0.00347    0.00347    0.00347    0.00347    0.00347
                         0.00347    0.00347    0.00347    0.00347    0.00347    0.00347
                         0.00347    0.00347    0.00347    0.00347    0.00347    0.00347
                         0.00347    0.00347    0.00347    0.00347    0.00347    0.00347
                         0.00347    0.00347    0.00347    0.00347    0.00347    0.00347
                         0.00347    0.00347    0.00347    0.00347    0.00347    0.00347
                         0.00347    0.00347
              wtk6       0.00347    0.00347    0.00347    0.00347    0.00347    0.00347
                         0.00347    0.00347    0.00347    0.00347    0.00347    0.00347
                         0.00347    0.00347    0.00347    0.00347    0.00347    0.00347
                         0.00347    0.00347    0.00347    0.00347    0.00347    0.00347
                         0.00347    0.00347    0.00347    0.00347    0.00347    0.00347
                         0.00347    0.00347    0.00347    0.00347    0.00347    0.00347
                         0.00347    0.00347    0.00347    0.00347    0.00347    0.00347
                         0.00347    0.00347    0.00347    0.00347    0.00347    0.00347
                         0.00347    0.00347
                       outvars : Printing only first  50 k-points.
           xangst      2.0538509643E+00  0.0000000000E+00  4.6664677603E+00
                       0.0000000000E+00  2.0538509643E+00  7.4160970295E+00
                       2.0538509643E+00  0.0000000000E+00  7.3843319666E+00
                       0.0000000000E+00  2.0538509643E+00  4.6982328231E+00
            xcart      3.8812158402E+00  0.0000000000E+00  8.8183460748E+00
                       0.0000000000E+00  3.8812158402E+00  1.4014392361E+01
                       3.8812158402E+00  0.0000000000E+00  1.3954365091E+01
                       0.0000000000E+00  3.8812158402E+00  8.8783733442E+00
             xred      5.0000000000E-01  0.0000000000E+00  3.8621500000E-01
                       0.0000000000E+00  5.0000000000E-01  6.1378500000E-01
                       5.0000000000E-01  0.0000000000E+00  6.1115600000E-01
                       0.0000000000E+00  5.0000000000E-01  3.8884400000E-01
            znucl       50.00000   34.00000

================================================================================


- Timing analysis has been suppressed with timopt=0



================================================================================

 Suggested references for the acknowledgment of ABINIT usage.

 The users of ABINIT have little formal obligations with respect to the ABINIT group
 (those specified in the GNU General Public License, http://www.gnu.org/copyleft/gpl.txt).
 However, it is common practice in the scientific literature,
 to acknowledge the efforts of people that have made the research possible.
 In this spirit, please find below suggested citations of work written by ABINIT developers,
 corresponding to implementations inside of ABINIT that you have used in the present run.
 Note also that it will be of great value to readers of publications presenting these results,
 to read papers enabling them to understand the theoretical formalism and details
 of the ABINIT implementation.
 For information on why they are suggested, see also https://docs.abinit.org/theory/acknowledgments.
-
- [1] The Abinit project: Impact, environment and recent developments.
- Computer Phys. Comm. 248, 107042 (2020).
- X.Gonze, B. Amadon, G. Antonius, F.Arnardi, L.Baguet, J.-M.Beuken,
- J.Bieder, F.Bottin, J.Bouchet, E.Bousquet, N.Brouwer, F.Bruneval,
- G.Brunin, T.Cavignac, J.-B. Charraud, Wei Chen, M.Cote, S.Cottenier,
- J.Denier, G.Geneste, Ph.Ghosez, M.Giantomassi, Y.Gillet, O.Gingras,
- D.R.Hamann, G.Hautier, Xu He, N.Helbig, N.Holzwarth, Y.Jia, F.Jollet,
- W.Lafargue-Dit-Hauret, K.Lejaeghere, M.A.L.Marques, A.Martin, C.Martins,
- H.P.C. Miranda, F.Naccarato, K. Persson, G.Petretto, V.Planes, Y.Pouillon,
- S.Prokhorenko, F.Ricci, G.-M.Rignanese, A.H.Romero, M.M.Schmitt, M.Torrent,
- M.J.van Setten, B.Van Troeye, M.J.Verstraete, G.Zerah and J.W.Zwanzig
- Comment: the fifth generic paper describing the ABINIT project.
- Note that a version of this paper, that is not formatted for Computer Phys. Comm. 
- is available at https://www.abinit.org/sites/default/files/ABINIT20.pdf .
- The licence allows the authors to put it on the Web.
- DOI and bibtex: see https://docs.abinit.org/theory/bibliography/#gonze2020
-
- [2] First-principles responses of solids to atomic displacements and homogeneous electric fields:,
- implementation of a conjugate-gradient algorithm. X. Gonze, Phys. Rev. B55, 10337 (1997).
- Comment: Non-vanishing rfphon and/or rfelfd, in the norm-conserving case.
- DOI and bibtex: see https://docs.abinit.org/theory/bibliography/#gonze1997
-
- [3] Dynamical matrices, Born effective charges, dielectric permittivity tensors, and ,
- interatomic force constants from density-functional perturbation theory,
- X. Gonze and C. Lee, Phys. Rev. B55, 10355 (1997).
- Comment: Non-vanishing rfphon and/or rfelfd, in the norm-conserving case.
- DOI and bibtex: see https://docs.abinit.org/theory/bibliography/#gonze1997a
-
- [4] Optimized norm-conserving Vanderbilt pseudopotentials.
- D.R. Hamann, Phys. Rev. B 88, 085117 (2013).
- Comment: Some pseudopotential generated using the ONCVPSP code were used.
- DOI and bibtex: see https://docs.abinit.org/theory/bibliography/#hamann2013
-
- [5] ABINIT: Overview, and focus on selected capabilities
- J. Chem. Phys. 152, 124102 (2020).
- A. Romero, D.C. Allan, B. Amadon, G. Antonius, T. Applencourt, L.Baguet,
- J.Bieder, F.Bottin, J.Bouchet, E.Bousquet, F.Bruneval,
- G.Brunin, D.Caliste, M.Cote,
- J.Denier, C. Dreyer, Ph.Ghosez, M.Giantomassi, Y.Gillet, O.Gingras,
- D.R.Hamann, G.Hautier, F.Jollet, G. Jomard,
- A.Martin, 
- H.P.C. Miranda, F.Naccarato, G.Petretto, N.A. Pike, V.Planes,
- S.Prokhorenko, T. Rangel, F.Ricci, G.-M.Rignanese, M.Royo, M.Stengel, M.Torrent,
- M.J.van Setten, B.Van Troeye, M.J.Verstraete, J.Wiktor, J.W.Zwanziger, and X.Gonze.
- Comment: a global overview of ABINIT, with focus on selected capabilities .
- Note that a version of this paper, that is not formatted for J. Chem. Phys 
- is available at https://www.abinit.org/sites/default/files/ABINIT20_JPC.pdf .
- The licence allows the authors to put it on the Web.
- DOI and bibtex: see https://docs.abinit.org/theory/bibliography/#romero2020
-
- [6] Recent developments in the ABINIT software package.
- Computer Phys. Comm. 205, 106 (2016).
- X.Gonze, F.Jollet, F.Abreu Araujo, D.Adams, B.Amadon, T.Applencourt,
- C.Audouze, J.-M.Beuken, J.Bieder, A.Bokhanchuk, E.Bousquet, F.Bruneval
- D.Caliste, M.Cote, F.Dahm, F.Da Pieve, M.Delaveau, M.Di Gennaro,
- B.Dorado, C.Espejo, G.Geneste, L.Genovese, A.Gerossier, M.Giantomassi,
- Y.Gillet, D.R.Hamann, L.He, G.Jomard, J.Laflamme Janssen, S.Le Roux,
- A.Levitt, A.Lherbier, F.Liu, I.Lukacevic, A.Martin, C.Martins,
- M.J.T.Oliveira, S.Ponce, Y.Pouillon, T.Rangel, G.-M.Rignanese,
- A.H.Romero, B.Rousseau, O.Rubel, A.A.Shukri, M.Stankovski, M.Torrent,
- M.J.Van Setten, B.Van Troeye, M.J.Verstraete, D.Waroquier, J.Wiktor,
- B.Xu, A.Zhou, J.W.Zwanziger.
- Comment: the fourth generic paper describing the ABINIT project.
- Note that a version of this paper, that is not formatted for Computer Phys. Comm. 
- is available at https://www.abinit.org/sites/default/files/ABINIT16.pdf .
- The licence allows the authors to put it on the Web.
- DOI and bibtex: see https://docs.abinit.org/theory/bibliography/#gonze2016
-
- Proc.   0 individual time (sec): cpu=       1839.1  wall=       1844.0

================================================================================

 Calculation completed.
.Delivered   6 WARNINGs and   0 COMMENTs to log file.
+Overall time at end (sec) : cpu=      11033.3  wall=      11063.5
