  ABINIT 9.2.2
  
 DeprecationWarning: 

     The files file has been deprecated in Abinit9 and will be removed in Abinit10.
     Use the syntax `abinit t01.abi` where t01.abi is an input with pseudopotenials.

            pseudos = "al.psp8, as.psp8"


  Give name for formatted input file: 
Cs2TiI6.in
  Give name for formatted output file:
Cs2TiI6.out
  Give root name for generic input files:
Cs2TiI6i
  Give root name for generic output files:
Cs2TiI6o
  Give root name for generic temporary files:
Cs2TiI6

.Version 9.2.2 of ABINIT 
.(MPI version, prepared for a x86_64_linux_gnu9.3 computer) 

.Copyright (C) 1998-2020 ABINIT group . 
 ABINIT comes with ABSOLUTELY NO WARRANTY.
 It is free software, and you are welcome to redistribute it
 under certain conditions (GNU General Public License,
 see ~abinit/COPYING or http://www.gnu.org/copyleft/gpl.txt).

 ABINIT is a project of the Universite Catholique de Louvain,
 Corning Inc. and other collaborators, see ~abinit/doc/developers/contributors.txt .
 Please read https://docs.abinit.org/theory/acknowledgments for suggested
 acknowledgments of the ABINIT effort.
 For more information, see https://www.abinit.org .

.Starting date : Sat 24 Feb 2024.
- ( at 13h53 )
  
- The starting date is more than 3 years after the initial release
- of this version of ABINIT, namely Nov 2020.
- This version of ABINIT is not supported anymore.
- Action: please, switch to a more recent version of ABINIT.

 ++++++++++++++++++++++++++++++++++++++++++++++++++++++++++++++++++++++++++++++

 === Build Information === 
  Version       : 9.2.2
  Build target  : x86_64_linux_gnu9.3
  Build date    : 20210501

 === Compiler Suite === 
  C compiler       : gnu9.3
  C++ compiler     : generic0.0
  Fortran compiler : gnu9.3
  CFLAGS           : -g -O2 -mtune=native -march=native
  CXXFLAGS         : 
  FCFLAGS          : -g -ffree-line-length-none
  FC_LDFLAGS       : 

 === Optimizations === 
  Debug level        : basic
  Optimization level : standard
  Architecture       : unknown_unknown

 === Multicore === 
  Parallel build : yes
  Parallel I/O   : yes
  openMP support : 
  GPU support    : 

 === Connectors / Fallbacks === 
  LINALG flavor  : netlib
  FFT flavor     : goedecker
  HDF5           : yes
  NetCDF         : yes
  NetCDF Fortran : yes
  LibXC          : yes
  Wannier90      : no

 === Experimental features === 
  Exports             : 
  GW double-precision : 

 ++++++++++++++++++++++++++++++++++++++++++++++++++++++++++++++++++++++++++++++


 ++++++++++++++++++++++++++++++++++++++++++++++++++++++++++++++++++++++++++++++
 Default optimizations:
   -O2 -mtune=native -march=native


 Optimizations for 43_ptgroups:
   -O0


 ++++++++++++++++++++++++++++++++++++++++++++++++++++++++++++++++++++++++++++++


 ++++++++++++++++++++++++++++++++++++++++++++++++++++++++++++++++++++++++++++++
 CPP options activated during the build:

                    CC_GNU                    FC_GNU HAVE_FC_ALLOCATABLE_DT...
 
             HAVE_FC_ASYNC         HAVE_FC_BACKTRACE  HAVE_FC_COMMAND_ARGUMENT
 
      HAVE_FC_COMMAND_LINE        HAVE_FC_CONTIGUOUS           HAVE_FC_CPUTIME
 
              HAVE_FC_EXIT             HAVE_FC_FLUSH             HAVE_FC_GAMMA
 
            HAVE_FC_GETENV   HAVE_FC_IEEE_ARITHMETIC   HAVE_FC_IEEE_EXCEPTIONS
 
          HAVE_FC_INT_QUAD             HAVE_FC_IOMSG     HAVE_FC_ISO_C_BINDING
 
  HAVE_FC_ISO_FORTRAN_2008        HAVE_FC_LONG_LINES        HAVE_FC_MOVE_ALLOC
 
  HAVE_FC_ON_THE_FLY_SHAPE           HAVE_FC_PRIVATE         HAVE_FC_PROTECTED
 
           HAVE_FC_SHIFTLR         HAVE_FC_STREAM_IO            HAVE_FC_SYSTEM
 
          HAVE_FORTRAN2003                 HAVE_HDF5        HAVE_LIBPAW_ABINIT
 
      HAVE_LIBTETRA_ABINIT                HAVE_LIBXC                  HAVE_MPI
 
                 HAVE_MPI2       HAVE_MPI_IALLGATHER       HAVE_MPI_IALLREDUCE
 
        HAVE_MPI_IALLTOALL       HAVE_MPI_IALLTOALLV           HAVE_MPI_IBCAST
 
         HAVE_MPI_IGATHERV        HAVE_MPI_INTEGER16               HAVE_MPI_IO
 
 HAVE_MPI_TYPE_CREATE_S...               HAVE_NETCDF       HAVE_NETCDF_FORTRAN
 
             HAVE_OS_LINUX         HAVE_TIMER_ABINIT                            
 ++++++++++++++++++++++++++++++++++++++++++++++++++++++++++++++++++++++++++++++

- input  file    -> Cs2TiI6.in
- output file    -> Cs2TiI6.out
- root for input  files -> Cs2TiI6i
- root for output files -> Cs2TiI6o

-instrng: 85 lines of input have been read from file Cs2TiI6.in


 Please give name of formatted atomic psp file (and finish with a newline character)
 For atom type 1, psp file is ../../../Psps_for_tests/ATOMICDATA_NC/Sn.psp8

 Please give name of formatted atomic psp file (and finish with a newline character)
 For atom type 2, psp file is ../../../Psps_for_tests/ATOMICDATA_NC/Se.psp8
  read the values zionpsp= 14.0 , pspcod=   8 , lmax=   2
  read the values zionpsp= 16.0 , pspcod=   8 , lmax=   2

 inpspheads: deduce mpsang = 3, n1xccc = 2501.

======================================================= 
 invars1m : enter jdtset= 1

 symlatt: the Bravais lattice is tP (primitive tetragonal)
  xred   is defined in input file
 ingeo: takes atomic coordinates from input array xred

--- !WARNING
src_file: m_ingeo.F90
src_line: 887
message: |
    The tolerance on symmetries =   1.000E-05 is bigger than 1.0e-8.
    In order to avoid spurious effects, the atomic coordinates have been
    symmetrized before storing them in the dataset internal variable.
    So, do not be surprised by the fact that your input variables (xcart, xred, ...)
    do not correspond to the ones echoed by ABINIT, the latter being used to do the calculations.
    In order to avoid this symmetrization (e.g. for specific debugging/development), decrease tolsym to 1.0e-8 or lower.
...


 symlatt: the Bravais lattice is tP (primitive tetragonal)

 symlatt: the Bravais lattice is tP (primitive tetragonal)
 symspgr: spgroup= 129  P4/n m m   (=D4h^7)
 symspgr: optical characteristics = uniaxial
 Optical axis (in reduced coordinates, real space ) :   0   0   1

======================================================= 
 invars1m : enter jdtset= 2

 symlatt: the Bravais lattice is tP (primitive tetragonal)
  xred   is defined in input file
 ingeo: takes atomic coordinates from input array xred

--- !WARNING
src_file: m_ingeo.F90
src_line: 887
message: |
    The tolerance on symmetries =   1.000E-05 is bigger than 1.0e-8.
    In order to avoid spurious effects, the atomic coordinates have been
    symmetrized before storing them in the dataset internal variable.
    So, do not be surprised by the fact that your input variables (xcart, xred, ...)
    do not correspond to the ones echoed by ABINIT, the latter being used to do the calculations.
    In order to avoid this symmetrization (e.g. for specific debugging/development), decrease tolsym to 1.0e-8 or lower.
...


 symlatt: the Bravais lattice is tP (primitive tetragonal)

 symlatt: the Bravais lattice is tP (primitive tetragonal)
 symspgr: spgroup= 129  P4/n m m   (=D4h^7)
 symspgr: optical characteristics = uniaxial
 Optical axis (in reduced coordinates, real space ) :   0   0   1

======================================================= 
 invars1m : enter jdtset= 3

 symlatt: the Bravais lattice is tP (primitive tetragonal)
  xred   is defined in input file
 ingeo: takes atomic coordinates from input array xred

--- !WARNING
src_file: m_ingeo.F90
src_line: 887
message: |
    The tolerance on symmetries =   1.000E-05 is bigger than 1.0e-8.
    In order to avoid spurious effects, the atomic coordinates have been
    symmetrized before storing them in the dataset internal variable.
    So, do not be surprised by the fact that your input variables (xcart, xred, ...)
    do not correspond to the ones echoed by ABINIT, the latter being used to do the calculations.
    In order to avoid this symmetrization (e.g. for specific debugging/development), decrease tolsym to 1.0e-8 or lower.
...


 symlatt: the Bravais lattice is tP (primitive tetragonal)

 symlatt: the Bravais lattice is tP (primitive tetragonal)
 symspgr: spgroup= 129  P4/n m m   (=D4h^7)
 symspgr: optical characteristics = uniaxial
 Optical axis (in reduced coordinates, real space ) :   0   0   1

======================================================= 
 invars1m : enter jdtset= 4

 symlatt: the Bravais lattice is tP (primitive tetragonal)
  xred   is defined in input file
 ingeo: takes atomic coordinates from input array xred

--- !WARNING
src_file: m_ingeo.F90
src_line: 887
message: |
    The tolerance on symmetries =   1.000E-05 is bigger than 1.0e-8.
    In order to avoid spurious effects, the atomic coordinates have been
    symmetrized before storing them in the dataset internal variable.
    So, do not be surprised by the fact that your input variables (xcart, xred, ...)
    do not correspond to the ones echoed by ABINIT, the latter being used to do the calculations.
    In order to avoid this symmetrization (e.g. for specific debugging/development), decrease tolsym to 1.0e-8 or lower.
...


 symlatt: the Bravais lattice is tP (primitive tetragonal)

 symlatt: the Bravais lattice is tP (primitive tetragonal)
 symspgr: spgroup= 129  P4/n m m   (=D4h^7)
 symspgr: optical characteristics = uniaxial
 Optical axis (in reduced coordinates, real space ) :   0   0   1

======================================================= 
 invars1m : enter jdtset= 5

 symlatt: the Bravais lattice is tP (primitive tetragonal)
  xred   is defined in input file
 ingeo: takes atomic coordinates from input array xred

--- !WARNING
src_file: m_ingeo.F90
src_line: 887
message: |
    The tolerance on symmetries =   1.000E-05 is bigger than 1.0e-8.
    In order to avoid spurious effects, the atomic coordinates have been
    symmetrized before storing them in the dataset internal variable.
    So, do not be surprised by the fact that your input variables (xcart, xred, ...)
    do not correspond to the ones echoed by ABINIT, the latter being used to do the calculations.
    In order to avoid this symmetrization (e.g. for specific debugging/development), decrease tolsym to 1.0e-8 or lower.
...


 symlatt: the Bravais lattice is tP (primitive tetragonal)

 symlatt: the Bravais lattice is tP (primitive tetragonal)
 symspgr: spgroup= 129  P4/n m m   (=D4h^7)
 symspgr: optical characteristics = uniaxial
 Optical axis (in reduced coordinates, real space ) :   0   0   1

======================================================= 
 invars1m : enter jdtset= 6

 symlatt: the Bravais lattice is tP (primitive tetragonal)
  xred   is defined in input file
 ingeo: takes atomic coordinates from input array xred

--- !WARNING
src_file: m_ingeo.F90
src_line: 887
message: |
    The tolerance on symmetries =   1.000E-05 is bigger than 1.0e-8.
    In order to avoid spurious effects, the atomic coordinates have been
    symmetrized before storing them in the dataset internal variable.
    So, do not be surprised by the fact that your input variables (xcart, xred, ...)
    do not correspond to the ones echoed by ABINIT, the latter being used to do the calculations.
    In order to avoid this symmetrization (e.g. for specific debugging/development), decrease tolsym to 1.0e-8 or lower.
...


 symlatt: the Bravais lattice is tP (primitive tetragonal)

 symlatt: the Bravais lattice is tP (primitive tetragonal)
 symspgr: spgroup= 129  P4/n m m   (=D4h^7)
 symspgr: optical characteristics = uniaxial
 Optical axis (in reduced coordinates, real space ) :   0   0   1
 For input ecut=  2.250000E+01 best grid ngfft=      36      36     100
       max ecut=  2.366431E+01

 ==== FFT mesh ====
  FFT mesh divisions ........................    36   36  100
  Augmented FFT divisions ...................    37   37  100
  FFT algorithm .............................   112
  FFT cache size ............................    16
 getmpw: optimal value of mpw= 7039
 For input ecut=  2.250000E+01 best grid ngfft=      36      36     100
       max ecut=  2.366431E+01

 ==== FFT mesh ====
  FFT mesh divisions ........................    36   36  100
  Augmented FFT divisions ...................    37   37  100
  FFT algorithm .............................   112
  FFT cache size ............................    16
 getmpw: optimal value of mpw= 7039
 For input ecut=  2.250000E+01 best grid ngfft=      36      36     100
       max ecut=  2.366431E+01

 ==== FFT mesh ====
  FFT mesh divisions ........................    36   36  100
  Augmented FFT divisions ...................    37   37  100
  FFT algorithm .............................   112
  FFT cache size ............................    16
 getmpw: optimal value of mpw= 7039
 For input ecut=  2.250000E+01 best grid ngfft=      36      36     100
       max ecut=  2.366431E+01

 ==== FFT mesh ====
  FFT mesh divisions ........................    36   36  100
  Augmented FFT divisions ...................    37   37  100
  FFT algorithm .............................   112
  FFT cache size ............................    16
 getmpw: optimal value of mpw= 7039
 getmpw: optimal value of mpw= 7039
 For input ecut=  2.250000E+01 best grid ngfft=      36      36     100
       max ecut=  2.366431E+01

 ==== FFT mesh ====
  FFT mesh divisions ........................    36   36  100
  Augmented FFT divisions ...................    37   37  100
  FFT algorithm .............................   112
  FFT cache size ............................    16
 getmpw: optimal value of mpw= 7039
 getmpw: optimal value of mpw= 7039
 For input ecut=  2.250000E+01 best grid ngfft=      36      36     100
       max ecut=  2.366431E+01

 ==== FFT mesh ====
  FFT mesh divisions ........................    36   36  100
  Augmented FFT divisions ...................    37   37  100
  FFT algorithm .............................   112
  FFT cache size ............................    16
 getmpw: optimal value of mpw= 7039
 getmpw: optimal value of mpw= 7039

 DATASET    1 : space group P4/n m m (#129); Bravais tP (primitive tetrag.)

 getdim_nloc : deduce lmnmax  =  18, lnmax  =   6,
                      lmnmaxso=  18, lnmaxso=   6.
memory: analysis of memory needs
================================================================================
 Values of the parameters that define the memory need for DATASET  1.
     intxc =       0    ionmov =       0      iscf =       7    lmnmax =       6
     lnmax =       6     mgfft =     100  mpssoang =       3    mqgrid =    4876
     natom =       4  nloc_mem =       1    nspden =       1   nspinor =       1
    nsppol =       1      nsym =      16    n1xccc =    2501    ntypat =       2
    occopt =       1   xclevel =       2
-    mband =          31        mffmem =           1         mkmem =           7
       mpw =        7039          nfft =      129600          nkpt =          42
================================================================================
P This job should need less than                      67.172 Mbytes of memory.
  Rough estimation (10% accuracy) of disk space for files :
_ WF disk file :    139.845 Mbytes ; DEN or POT disk file :      0.991 Mbytes.
================================================================================

 Biggest array : cg(disk), with     23.3092 MBytes.
 memana : allocated an array of     23.309 Mbytes, for testing purposes.
 memana: allocated      67.172Mbytes, for testing purposes. 
 The job will continue.

 DATASET    2 : space group P4/n m m (#129); Bravais tP (primitive tetrag.)

 getdim_nloc : deduce lmnmax  =  18, lnmax  =   6,
                      lmnmaxso=  18, lnmaxso=   6.
memory: analysis of memory needs
================================================================================
 Values of the parameters that define the memory need for DATASET  2.
     intxc =       0    ionmov =       0      iscf =      -2    lmnmax =       6
     lnmax =       6     mgfft =     100  mpssoang =       3    mqgrid =    4876
     natom =       4  nloc_mem =       1    nspden =       1   nspinor =       1
    nsppol =       1      nsym =      16    n1xccc =    2501    ntypat =       2
    occopt =       1   xclevel =       2
-    mband =         100        mffmem =           1         mkmem =           7
       mpw =        7039          nfft =      129600          nkpt =          42
================================================================================
P This job should need less than                     102.307 Mbytes of memory.
  Rough estimation (10% accuracy) of disk space for files :
_ WF disk file :    451.110 Mbytes ; DEN or POT disk file :      0.991 Mbytes.
================================================================================

 Biggest array : cg(disk), with     75.1866 MBytes.
 memana : allocated an array of     75.187 Mbytes, for testing purposes.
 memana: allocated     102.307Mbytes, for testing purposes. 
 The job will continue.

 DATASET    3 : space group P4/n m m (#129); Bravais tP (primitive tetrag.)

 getdim_nloc : deduce lmnmax  =  18, lnmax  =   6,
                      lmnmaxso=  18, lnmaxso=   6.
memory: analysis of memory needs
================================================================================
 Values of the parameters that define the memory need for DATASET  3.
     intxc =       0    ionmov =       0      iscf =      -2    lmnmax =       6
     lnmax =       6     mgfft =     100  mpssoang =       3    mqgrid =    4876
     natom =       4  nloc_mem =       1    nspden =       1   nspinor =       1
    nsppol =       1      nsym =      16    n1xccc =    2501    ntypat =       2
    occopt =       1   xclevel =       2
-    mband =         100        mffmem =           1         mkmem =          48
       mpw =        7039          nfft =      129600          nkpt =         288
================================================================================
P This job should need less than                     549.401 Mbytes of memory.
  Rough estimation (10% accuracy) of disk space for files :
_ WF disk file :   3093.313 Mbytes ; DEN or POT disk file :      0.991 Mbytes.
================================================================================

 Biggest array : cg(disk), with    515.5538 MBytes.
 memana : allocated an array of    515.554 Mbytes, for testing purposes.
 memana: allocated     549.401Mbytes, for testing purposes. 
 The job will continue.

 DATASET    4 : space group P4/n m m (#129); Bravais tP (primitive tetrag.)

 getdim_nloc : deduce lmnmax  =  18, lnmax  =   6,
                      lmnmaxso=  18, lnmaxso=   6.
 memorf : analysis of memory needs
================================================================================
 Values of the parameters that define the memory need for DATASET  4 (RF).
     intxc =       0      iscf =      -3    lmnmax =       6     lnmax =       6
     mgfft =     100  mpssoang =       3    mqgrid =    4876     natom =       4
  nloc_mem =       1    nspden =       1   nspinor =       1    nsppol =       1
      nsym =      16    n1xccc =    2501    ntypat =       2    occopt =       1
   xclevel =       2
-    mband =         100        mffmem =           1         mkmem =          48
-   mkqmem =          48        mk1mem =          48           mpw =        7039
      nfft =      129600          nkpt =         288
================================================================================
P This job should need less than                    1631.860 Mbytes of memory.
  Rough estimation (10% accuracy) of disk space for files :
_ WF disk file :  -1002.687 Mbytes ; DEN or POT disk file :      0.991 Mbytes.
================================================================================

 Biggest array : cg(disk), with    515.5538 MBytes.
 memana : allocated an array of    515.554 Mbytes, for testing purposes.
 memana: allocated    1631.860Mbytes, for testing purposes. 
 The job will continue.

 DATASET    5 : space group P4/n m m (#129); Bravais tP (primitive tetrag.)

 getdim_nloc : deduce lmnmax  =  18, lnmax  =   6,
                      lmnmaxso=  18, lnmaxso=   6.
 memorf : analysis of memory needs
================================================================================
 Values of the parameters that define the memory need for DATASET  5 (RF).
     intxc =       0      iscf =      -3    lmnmax =       6     lnmax =       6
     mgfft =     100  mpssoang =       3    mqgrid =    4876     natom =       4
  nloc_mem =       1    nspden =       1   nspinor =       1    nsppol =       1
      nsym =      16    n1xccc =    2501    ntypat =       2    occopt =       1
   xclevel =       2
-    mband =         100        mffmem =           1         mkmem =          48
-   mkqmem =          48        mk1mem =          48           mpw =        7039
      nfft =      129600          nkpt =         288
================================================================================
P This job should need less than                    1631.860 Mbytes of memory.
  Rough estimation (10% accuracy) of disk space for files :
_ WF disk file :  -1002.687 Mbytes ; DEN or POT disk file :      0.991 Mbytes.
================================================================================

 Biggest array : cg(disk), with    515.5538 MBytes.
 memana : allocated an array of    515.554 Mbytes, for testing purposes.
 memana: allocated    1631.860Mbytes, for testing purposes. 
 The job will continue.

 DATASET    6 : space group P4/n m m (#129); Bravais tP (primitive tetrag.)

 getdim_nloc : deduce lmnmax  =  18, lnmax  =   6,
                      lmnmaxso=  18, lnmaxso=   6.
 memorf : analysis of memory needs
================================================================================
 Values of the parameters that define the memory need for DATASET  6 (RF).
     intxc =       0      iscf =      -3    lmnmax =       6     lnmax =       6
     mgfft =     100  mpssoang =       3    mqgrid =    4876     natom =       4
  nloc_mem =       1    nspden =       1   nspinor =       1    nsppol =       1
      nsym =      16    n1xccc =    2501    ntypat =       2    occopt =       1
   xclevel =       2
-    mband =         100        mffmem =           1         mkmem =          48
-   mkqmem =          48        mk1mem =          48           mpw =        7039
      nfft =      129600          nkpt =         288
================================================================================
P This job should need less than                    1631.860 Mbytes of memory.
  Rough estimation (10% accuracy) of disk space for files :
_ WF disk file :  -1002.687 Mbytes ; DEN or POT disk file :      0.991 Mbytes.
================================================================================

 Biggest array : cg(disk), with    515.5538 MBytes.
 memana : allocated an array of    515.554 Mbytes, for testing purposes.
 memana: allocated    1631.860Mbytes, for testing purposes. 
 The job will continue.
--------------------------------------------------------------------------------
------------- Echo of variables that govern the present computation ------------
--------------------------------------------------------------------------------
-
- outvars: echo of selected default values                                      
-   iomode0 =  0 , fftalg0 =112 , wfoptalg0 =  0
-
- outvars: echo of global parameters not present in the input file              
-  max_nthreads =    0
-
 -outvars: echo values of preprocessed input variables --------
 
 These variables are accessible in NetCDF format (Cs2TiI6o_OUT.nc)

            acell      7.7624316804E+00  7.7624316804E+00  7.7624316804E+00 Bohr
              amu      1.18710000E+02  7.89600000E+01
           diemac      1.20000000E+01
             ecut      2.25000000E+01 Hartree
-          fftalg         112
           getden1          0
           getden2          1
           getden3          1
           getden4          0
           getden5          0
           getden6          0
           getwfk1          0
           getwfk2          1
           getwfk3          2
           getwfk4          3
           getwfk5          3
           getwfk6          3
             iscf1          7
             iscf2         -2
             iscf3         -2
             iscf4         -3
             iscf5         -3
             iscf6         -3
              ixc          11
           jdtset        1    2    3    4    5    6
              kpt1     4.16666667E-02  4.16666667E-02  1.25000000E-01
                       1.25000000E-01  4.16666667E-02  1.25000000E-01
                       2.08333333E-01  4.16666667E-02  1.25000000E-01
                       2.91666667E-01  4.16666667E-02  1.25000000E-01
                       3.75000000E-01  4.16666667E-02  1.25000000E-01
                       4.58333333E-01  4.16666667E-02  1.25000000E-01
                       1.25000000E-01  1.25000000E-01  1.25000000E-01
                       2.08333333E-01  1.25000000E-01  1.25000000E-01
                       2.91666667E-01  1.25000000E-01  1.25000000E-01
                       3.75000000E-01  1.25000000E-01  1.25000000E-01
                       4.58333333E-01  1.25000000E-01  1.25000000E-01
                       2.08333333E-01  2.08333333E-01  1.25000000E-01
                       2.91666667E-01  2.08333333E-01  1.25000000E-01
                       3.75000000E-01  2.08333333E-01  1.25000000E-01
                       4.58333333E-01  2.08333333E-01  1.25000000E-01
                       2.91666667E-01  2.91666667E-01  1.25000000E-01
                       3.75000000E-01  2.91666667E-01  1.25000000E-01
                       4.58333333E-01  2.91666667E-01  1.25000000E-01
                       3.75000000E-01  3.75000000E-01  1.25000000E-01
                       4.58333333E-01  3.75000000E-01  1.25000000E-01
                       4.58333333E-01  4.58333333E-01  1.25000000E-01
                       4.16666667E-02  4.16666667E-02  3.75000000E-01
                       1.25000000E-01  4.16666667E-02  3.75000000E-01
                       2.08333333E-01  4.16666667E-02  3.75000000E-01
                       2.91666667E-01  4.16666667E-02  3.75000000E-01
                       3.75000000E-01  4.16666667E-02  3.75000000E-01
                       4.58333333E-01  4.16666667E-02  3.75000000E-01
                       1.25000000E-01  1.25000000E-01  3.75000000E-01
                       2.08333333E-01  1.25000000E-01  3.75000000E-01
                       2.91666667E-01  1.25000000E-01  3.75000000E-01
                       3.75000000E-01  1.25000000E-01  3.75000000E-01
                       4.58333333E-01  1.25000000E-01  3.75000000E-01
                       2.08333333E-01  2.08333333E-01  3.75000000E-01
                       2.91666667E-01  2.08333333E-01  3.75000000E-01
                       3.75000000E-01  2.08333333E-01  3.75000000E-01
                       4.58333333E-01  2.08333333E-01  3.75000000E-01
                       2.91666667E-01  2.91666667E-01  3.75000000E-01
                       3.75000000E-01  2.91666667E-01  3.75000000E-01
                       4.58333333E-01  2.91666667E-01  3.75000000E-01
                       3.75000000E-01  3.75000000E-01  3.75000000E-01
                       4.58333333E-01  3.75000000E-01  3.75000000E-01
                       4.58333333E-01  4.58333333E-01  3.75000000E-01
              kpt2     4.16666667E-02  4.16666667E-02  1.25000000E-01
                       1.25000000E-01  4.16666667E-02  1.25000000E-01
                       2.08333333E-01  4.16666667E-02  1.25000000E-01
                       2.91666667E-01  4.16666667E-02  1.25000000E-01
                       3.75000000E-01  4.16666667E-02  1.25000000E-01
                       4.58333333E-01  4.16666667E-02  1.25000000E-01
                       1.25000000E-01  1.25000000E-01  1.25000000E-01
                       2.08333333E-01  1.25000000E-01  1.25000000E-01
                       2.91666667E-01  1.25000000E-01  1.25000000E-01
                       3.75000000E-01  1.25000000E-01  1.25000000E-01
                       4.58333333E-01  1.25000000E-01  1.25000000E-01
                       2.08333333E-01  2.08333333E-01  1.25000000E-01
                       2.91666667E-01  2.08333333E-01  1.25000000E-01
                       3.75000000E-01  2.08333333E-01  1.25000000E-01
                       4.58333333E-01  2.08333333E-01  1.25000000E-01
                       2.91666667E-01  2.91666667E-01  1.25000000E-01
                       3.75000000E-01  2.91666667E-01  1.25000000E-01
                       4.58333333E-01  2.91666667E-01  1.25000000E-01
                       3.75000000E-01  3.75000000E-01  1.25000000E-01
                       4.58333333E-01  3.75000000E-01  1.25000000E-01
                       4.58333333E-01  4.58333333E-01  1.25000000E-01
                       4.16666667E-02  4.16666667E-02  3.75000000E-01
                       1.25000000E-01  4.16666667E-02  3.75000000E-01
                       2.08333333E-01  4.16666667E-02  3.75000000E-01
                       2.91666667E-01  4.16666667E-02  3.75000000E-01
                       3.75000000E-01  4.16666667E-02  3.75000000E-01
                       4.58333333E-01  4.16666667E-02  3.75000000E-01
                       1.25000000E-01  1.25000000E-01  3.75000000E-01
                       2.08333333E-01  1.25000000E-01  3.75000000E-01
                       2.91666667E-01  1.25000000E-01  3.75000000E-01
                       3.75000000E-01  1.25000000E-01  3.75000000E-01
                       4.58333333E-01  1.25000000E-01  3.75000000E-01
                       2.08333333E-01  2.08333333E-01  3.75000000E-01
                       2.91666667E-01  2.08333333E-01  3.75000000E-01
                       3.75000000E-01  2.08333333E-01  3.75000000E-01
                       4.58333333E-01  2.08333333E-01  3.75000000E-01
                       2.91666667E-01  2.91666667E-01  3.75000000E-01
                       3.75000000E-01  2.91666667E-01  3.75000000E-01
                       4.58333333E-01  2.91666667E-01  3.75000000E-01
                       3.75000000E-01  3.75000000E-01  3.75000000E-01
                       4.58333333E-01  3.75000000E-01  3.75000000E-01
                       4.58333333E-01  4.58333333E-01  3.75000000E-01
              kpt3     4.16666667E-02  4.16666667E-02  1.25000000E-01
                       1.25000000E-01  4.16666667E-02  1.25000000E-01
                       2.08333333E-01  4.16666667E-02  1.25000000E-01
                       2.91666667E-01  4.16666667E-02  1.25000000E-01
                       3.75000000E-01  4.16666667E-02  1.25000000E-01
                       4.58333333E-01  4.16666667E-02  1.25000000E-01
                      -4.58333333E-01  4.16666667E-02  1.25000000E-01
                      -3.75000000E-01  4.16666667E-02  1.25000000E-01
                      -2.91666667E-01  4.16666667E-02  1.25000000E-01
                      -2.08333333E-01  4.16666667E-02  1.25000000E-01
                      -1.25000000E-01  4.16666667E-02  1.25000000E-01
                      -4.16666667E-02  4.16666667E-02  1.25000000E-01
                       4.16666667E-02  1.25000000E-01  1.25000000E-01
                       1.25000000E-01  1.25000000E-01  1.25000000E-01
                       2.08333333E-01  1.25000000E-01  1.25000000E-01
                       2.91666667E-01  1.25000000E-01  1.25000000E-01
                       3.75000000E-01  1.25000000E-01  1.25000000E-01
                       4.58333333E-01  1.25000000E-01  1.25000000E-01
                      -4.58333333E-01  1.25000000E-01  1.25000000E-01
                      -3.75000000E-01  1.25000000E-01  1.25000000E-01
                      -2.91666667E-01  1.25000000E-01  1.25000000E-01
                      -2.08333333E-01  1.25000000E-01  1.25000000E-01
                      -1.25000000E-01  1.25000000E-01  1.25000000E-01
                      -4.16666667E-02  1.25000000E-01  1.25000000E-01
                       4.16666667E-02  2.08333333E-01  1.25000000E-01
                       1.25000000E-01  2.08333333E-01  1.25000000E-01
                       2.08333333E-01  2.08333333E-01  1.25000000E-01
                       2.91666667E-01  2.08333333E-01  1.25000000E-01
                       3.75000000E-01  2.08333333E-01  1.25000000E-01
                       4.58333333E-01  2.08333333E-01  1.25000000E-01
                      -4.58333333E-01  2.08333333E-01  1.25000000E-01
                      -3.75000000E-01  2.08333333E-01  1.25000000E-01
                      -2.91666667E-01  2.08333333E-01  1.25000000E-01
                      -2.08333333E-01  2.08333333E-01  1.25000000E-01
                      -1.25000000E-01  2.08333333E-01  1.25000000E-01
                      -4.16666667E-02  2.08333333E-01  1.25000000E-01
                       4.16666667E-02  2.91666667E-01  1.25000000E-01
                       1.25000000E-01  2.91666667E-01  1.25000000E-01
                       2.08333333E-01  2.91666667E-01  1.25000000E-01
                       2.91666667E-01  2.91666667E-01  1.25000000E-01
                       3.75000000E-01  2.91666667E-01  1.25000000E-01
                       4.58333333E-01  2.91666667E-01  1.25000000E-01
                      -4.58333333E-01  2.91666667E-01  1.25000000E-01
                      -3.75000000E-01  2.91666667E-01  1.25000000E-01
                      -2.91666667E-01  2.91666667E-01  1.25000000E-01
                      -2.08333333E-01  2.91666667E-01  1.25000000E-01
                      -1.25000000E-01  2.91666667E-01  1.25000000E-01
                      -4.16666667E-02  2.91666667E-01  1.25000000E-01
                       4.16666667E-02  3.75000000E-01  1.25000000E-01
                       1.25000000E-01  3.75000000E-01  1.25000000E-01
              kpt4     4.16666667E-02  4.16666667E-02  1.25000000E-01
                       1.25000000E-01  4.16666667E-02  1.25000000E-01
                       2.08333333E-01  4.16666667E-02  1.25000000E-01
                       2.91666667E-01  4.16666667E-02  1.25000000E-01
                       3.75000000E-01  4.16666667E-02  1.25000000E-01
                       4.58333333E-01  4.16666667E-02  1.25000000E-01
                      -4.58333333E-01  4.16666667E-02  1.25000000E-01
                      -3.75000000E-01  4.16666667E-02  1.25000000E-01
                      -2.91666667E-01  4.16666667E-02  1.25000000E-01
                      -2.08333333E-01  4.16666667E-02  1.25000000E-01
                      -1.25000000E-01  4.16666667E-02  1.25000000E-01
                      -4.16666667E-02  4.16666667E-02  1.25000000E-01
                       4.16666667E-02  1.25000000E-01  1.25000000E-01
                       1.25000000E-01  1.25000000E-01  1.25000000E-01
                       2.08333333E-01  1.25000000E-01  1.25000000E-01
                       2.91666667E-01  1.25000000E-01  1.25000000E-01
                       3.75000000E-01  1.25000000E-01  1.25000000E-01
                       4.58333333E-01  1.25000000E-01  1.25000000E-01
                      -4.58333333E-01  1.25000000E-01  1.25000000E-01
                      -3.75000000E-01  1.25000000E-01  1.25000000E-01
                      -2.91666667E-01  1.25000000E-01  1.25000000E-01
                      -2.08333333E-01  1.25000000E-01  1.25000000E-01
                      -1.25000000E-01  1.25000000E-01  1.25000000E-01
                      -4.16666667E-02  1.25000000E-01  1.25000000E-01
                       4.16666667E-02  2.08333333E-01  1.25000000E-01
                       1.25000000E-01  2.08333333E-01  1.25000000E-01
                       2.08333333E-01  2.08333333E-01  1.25000000E-01
                       2.91666667E-01  2.08333333E-01  1.25000000E-01
                       3.75000000E-01  2.08333333E-01  1.25000000E-01
                       4.58333333E-01  2.08333333E-01  1.25000000E-01
                      -4.58333333E-01  2.08333333E-01  1.25000000E-01
                      -3.75000000E-01  2.08333333E-01  1.25000000E-01
                      -2.91666667E-01  2.08333333E-01  1.25000000E-01
                      -2.08333333E-01  2.08333333E-01  1.25000000E-01
                      -1.25000000E-01  2.08333333E-01  1.25000000E-01
                      -4.16666667E-02  2.08333333E-01  1.25000000E-01
                       4.16666667E-02  2.91666667E-01  1.25000000E-01
                       1.25000000E-01  2.91666667E-01  1.25000000E-01
                       2.08333333E-01  2.91666667E-01  1.25000000E-01
                       2.91666667E-01  2.91666667E-01  1.25000000E-01
                       3.75000000E-01  2.91666667E-01  1.25000000E-01
                       4.58333333E-01  2.91666667E-01  1.25000000E-01
                      -4.58333333E-01  2.91666667E-01  1.25000000E-01
                      -3.75000000E-01  2.91666667E-01  1.25000000E-01
                      -2.91666667E-01  2.91666667E-01  1.25000000E-01
                      -2.08333333E-01  2.91666667E-01  1.25000000E-01
                      -1.25000000E-01  2.91666667E-01  1.25000000E-01
                      -4.16666667E-02  2.91666667E-01  1.25000000E-01
                       4.16666667E-02  3.75000000E-01  1.25000000E-01
                       1.25000000E-01  3.75000000E-01  1.25000000E-01
              kpt5     4.16666667E-02  4.16666667E-02  1.25000000E-01
                       1.25000000E-01  4.16666667E-02  1.25000000E-01
                       2.08333333E-01  4.16666667E-02  1.25000000E-01
                       2.91666667E-01  4.16666667E-02  1.25000000E-01
                       3.75000000E-01  4.16666667E-02  1.25000000E-01
                       4.58333333E-01  4.16666667E-02  1.25000000E-01
                      -4.58333333E-01  4.16666667E-02  1.25000000E-01
                      -3.75000000E-01  4.16666667E-02  1.25000000E-01
                      -2.91666667E-01  4.16666667E-02  1.25000000E-01
                      -2.08333333E-01  4.16666667E-02  1.25000000E-01
                      -1.25000000E-01  4.16666667E-02  1.25000000E-01
                      -4.16666667E-02  4.16666667E-02  1.25000000E-01
                       4.16666667E-02  1.25000000E-01  1.25000000E-01
                       1.25000000E-01  1.25000000E-01  1.25000000E-01
                       2.08333333E-01  1.25000000E-01  1.25000000E-01
                       2.91666667E-01  1.25000000E-01  1.25000000E-01
                       3.75000000E-01  1.25000000E-01  1.25000000E-01
                       4.58333333E-01  1.25000000E-01  1.25000000E-01
                      -4.58333333E-01  1.25000000E-01  1.25000000E-01
                      -3.75000000E-01  1.25000000E-01  1.25000000E-01
                      -2.91666667E-01  1.25000000E-01  1.25000000E-01
                      -2.08333333E-01  1.25000000E-01  1.25000000E-01
                      -1.25000000E-01  1.25000000E-01  1.25000000E-01
                      -4.16666667E-02  1.25000000E-01  1.25000000E-01
                       4.16666667E-02  2.08333333E-01  1.25000000E-01
                       1.25000000E-01  2.08333333E-01  1.25000000E-01
                       2.08333333E-01  2.08333333E-01  1.25000000E-01
                       2.91666667E-01  2.08333333E-01  1.25000000E-01
                       3.75000000E-01  2.08333333E-01  1.25000000E-01
                       4.58333333E-01  2.08333333E-01  1.25000000E-01
                      -4.58333333E-01  2.08333333E-01  1.25000000E-01
                      -3.75000000E-01  2.08333333E-01  1.25000000E-01
                      -2.91666667E-01  2.08333333E-01  1.25000000E-01
                      -2.08333333E-01  2.08333333E-01  1.25000000E-01
                      -1.25000000E-01  2.08333333E-01  1.25000000E-01
                      -4.16666667E-02  2.08333333E-01  1.25000000E-01
                       4.16666667E-02  2.91666667E-01  1.25000000E-01
                       1.25000000E-01  2.91666667E-01  1.25000000E-01
                       2.08333333E-01  2.91666667E-01  1.25000000E-01
                       2.91666667E-01  2.91666667E-01  1.25000000E-01
                       3.75000000E-01  2.91666667E-01  1.25000000E-01
                       4.58333333E-01  2.91666667E-01  1.25000000E-01
                      -4.58333333E-01  2.91666667E-01  1.25000000E-01
                      -3.75000000E-01  2.91666667E-01  1.25000000E-01
                      -2.91666667E-01  2.91666667E-01  1.25000000E-01
                      -2.08333333E-01  2.91666667E-01  1.25000000E-01
                      -1.25000000E-01  2.91666667E-01  1.25000000E-01
                      -4.16666667E-02  2.91666667E-01  1.25000000E-01
                       4.16666667E-02  3.75000000E-01  1.25000000E-01
                       1.25000000E-01  3.75000000E-01  1.25000000E-01
              kpt6     4.16666667E-02  4.16666667E-02  1.25000000E-01
                       1.25000000E-01  4.16666667E-02  1.25000000E-01
                       2.08333333E-01  4.16666667E-02  1.25000000E-01
                       2.91666667E-01  4.16666667E-02  1.25000000E-01
                       3.75000000E-01  4.16666667E-02  1.25000000E-01
                       4.58333333E-01  4.16666667E-02  1.25000000E-01
                      -4.58333333E-01  4.16666667E-02  1.25000000E-01
                      -3.75000000E-01  4.16666667E-02  1.25000000E-01
                      -2.91666667E-01  4.16666667E-02  1.25000000E-01
                      -2.08333333E-01  4.16666667E-02  1.25000000E-01
                      -1.25000000E-01  4.16666667E-02  1.25000000E-01
                      -4.16666667E-02  4.16666667E-02  1.25000000E-01
                       4.16666667E-02  1.25000000E-01  1.25000000E-01
                       1.25000000E-01  1.25000000E-01  1.25000000E-01
                       2.08333333E-01  1.25000000E-01  1.25000000E-01
                       2.91666667E-01  1.25000000E-01  1.25000000E-01
                       3.75000000E-01  1.25000000E-01  1.25000000E-01
                       4.58333333E-01  1.25000000E-01  1.25000000E-01
                      -4.58333333E-01  1.25000000E-01  1.25000000E-01
                      -3.75000000E-01  1.25000000E-01  1.25000000E-01
                      -2.91666667E-01  1.25000000E-01  1.25000000E-01
                      -2.08333333E-01  1.25000000E-01  1.25000000E-01
                      -1.25000000E-01  1.25000000E-01  1.25000000E-01
                      -4.16666667E-02  1.25000000E-01  1.25000000E-01
                       4.16666667E-02  2.08333333E-01  1.25000000E-01
                       1.25000000E-01  2.08333333E-01  1.25000000E-01
                       2.08333333E-01  2.08333333E-01  1.25000000E-01
                       2.91666667E-01  2.08333333E-01  1.25000000E-01
                       3.75000000E-01  2.08333333E-01  1.25000000E-01
                       4.58333333E-01  2.08333333E-01  1.25000000E-01
                      -4.58333333E-01  2.08333333E-01  1.25000000E-01
                      -3.75000000E-01  2.08333333E-01  1.25000000E-01
                      -2.91666667E-01  2.08333333E-01  1.25000000E-01
                      -2.08333333E-01  2.08333333E-01  1.25000000E-01
                      -1.25000000E-01  2.08333333E-01  1.25000000E-01
                      -4.16666667E-02  2.08333333E-01  1.25000000E-01
                       4.16666667E-02  2.91666667E-01  1.25000000E-01
                       1.25000000E-01  2.91666667E-01  1.25000000E-01
                       2.08333333E-01  2.91666667E-01  1.25000000E-01
                       2.91666667E-01  2.91666667E-01  1.25000000E-01
                       3.75000000E-01  2.91666667E-01  1.25000000E-01
                       4.58333333E-01  2.91666667E-01  1.25000000E-01
                      -4.58333333E-01  2.91666667E-01  1.25000000E-01
                      -3.75000000E-01  2.91666667E-01  1.25000000E-01
                      -2.91666667E-01  2.91666667E-01  1.25000000E-01
                      -2.08333333E-01  2.91666667E-01  1.25000000E-01
                      -1.25000000E-01  2.91666667E-01  1.25000000E-01
                      -4.16666667E-02  2.91666667E-01  1.25000000E-01
                       4.16666667E-02  3.75000000E-01  1.25000000E-01
                       1.25000000E-01  3.75000000E-01  1.25000000E-01
                       outvar_i_n : Printing only first  50 k-points.
           kptopt1          1
           kptopt2          1
           kptopt3          2
           kptopt4          2
           kptopt5          2
           kptopt6          2
         kptrlatt       12    0    0      0   12    0      0    0    4
          kptrlen      9.31491802E+01
P           mkmem1          7
P           mkmem2          7
P           mkmem3         48
P           mkmem4         48
P           mkmem5         48
P           mkmem6         48
P          mkqmem1          7
P          mkqmem2          7
P          mkqmem3         48
P          mkqmem4         48
P          mkqmem5         48
P          mkqmem6         48
P          mk1mem1          7
P          mk1mem2          7
P          mk1mem3         48
P          mk1mem4         48
P          mk1mem5         48
P          mk1mem6         48
            natom           4
            nband1         31
            nband2        100
            nband3        100
            nband4        100
            nband5        100
            nband6        100
           nbdbuf1          0
           nbdbuf2          2
           nbdbuf3          2
           nbdbuf4          2
           nbdbuf5          2
           nbdbuf6          2
           ndtset           6
            ngfft          36      36     100
             nkpt1         42
             nkpt2         42
             nkpt3        288
             nkpt4        288
             nkpt5        288
             nkpt6        288
            nline1          4
            nline2          4
            nline3          4
            nline4          0
            nline5          0
            nline6          0
             nqpt1          0
             nqpt2          0
             nqpt3          0
             nqpt4          1
             nqpt5          1
             nqpt6          1
            nstep1        400
            nstep2        200
            nstep3        200
            nstep4          1
            nstep5          1
            nstep6          1
             nsym          16
           ntypat           2
              occ1     2.000000  2.000000  2.000000  2.000000  2.000000  2.000000
                       2.000000  2.000000  2.000000  2.000000  2.000000  2.000000
                       2.000000  2.000000  2.000000  2.000000  2.000000  2.000000
                       2.000000  2.000000  2.000000  2.000000  2.000000  2.000000
                       2.000000  2.000000  2.000000  2.000000  2.000000  2.000000
                       0.000000
              occ4     2.000000  2.000000  2.000000  2.000000  2.000000  2.000000
                       2.000000  2.000000  2.000000  2.000000  2.000000  2.000000
                       2.000000  2.000000  2.000000  2.000000  2.000000  2.000000
                       2.000000  2.000000  2.000000  2.000000  2.000000  2.000000
                       2.000000  2.000000  2.000000  2.000000  2.000000  2.000000
                       0.000000  0.000000  0.000000  0.000000  0.000000  0.000000
                       0.000000  0.000000  0.000000  0.000000  0.000000  0.000000
                       0.000000  0.000000  0.000000  0.000000  0.000000  0.000000
                       0.000000  0.000000  0.000000  0.000000  0.000000  0.000000
                       0.000000  0.000000  0.000000  0.000000  0.000000  0.000000
                       0.000000  0.000000  0.000000  0.000000  0.000000  0.000000
                       0.000000  0.000000  0.000000  0.000000  0.000000  0.000000
                       0.000000  0.000000  0.000000  0.000000  0.000000  0.000000
                       0.000000  0.000000  0.000000  0.000000  0.000000  0.000000
                       0.000000  0.000000  0.000000  0.000000  0.000000  0.000000
                       0.000000  0.000000  0.000000  0.000000  0.000000  0.000000
                       0.000000  0.000000  0.000000  0.000000
              occ5     2.000000  2.000000  2.000000  2.000000  2.000000  2.000000
                       2.000000  2.000000  2.000000  2.000000  2.000000  2.000000
                       2.000000  2.000000  2.000000  2.000000  2.000000  2.000000
                       2.000000  2.000000  2.000000  2.000000  2.000000  2.000000
                       2.000000  2.000000  2.000000  2.000000  2.000000  2.000000
                       0.000000  0.000000  0.000000  0.000000  0.000000  0.000000
                       0.000000  0.000000  0.000000  0.000000  0.000000  0.000000
                       0.000000  0.000000  0.000000  0.000000  0.000000  0.000000
                       0.000000  0.000000  0.000000  0.000000  0.000000  0.000000
                       0.000000  0.000000  0.000000  0.000000  0.000000  0.000000
                       0.000000  0.000000  0.000000  0.000000  0.000000  0.000000
                       0.000000  0.000000  0.000000  0.000000  0.000000  0.000000
                       0.000000  0.000000  0.000000  0.000000  0.000000  0.000000
                       0.000000  0.000000  0.000000  0.000000  0.000000  0.000000
                       0.000000  0.000000  0.000000  0.000000  0.000000  0.000000
                       0.000000  0.000000  0.000000  0.000000  0.000000  0.000000
                       0.000000  0.000000  0.000000  0.000000
              occ6     2.000000  2.000000  2.000000  2.000000  2.000000  2.000000
                       2.000000  2.000000  2.000000  2.000000  2.000000  2.000000
                       2.000000  2.000000  2.000000  2.000000  2.000000  2.000000
                       2.000000  2.000000  2.000000  2.000000  2.000000  2.000000
                       2.000000  2.000000  2.000000  2.000000  2.000000  2.000000
                       0.000000  0.000000  0.000000  0.000000  0.000000  0.000000
                       0.000000  0.000000  0.000000  0.000000  0.000000  0.000000
                       0.000000  0.000000  0.000000  0.000000  0.000000  0.000000
                       0.000000  0.000000  0.000000  0.000000  0.000000  0.000000
                       0.000000  0.000000  0.000000  0.000000  0.000000  0.000000
                       0.000000  0.000000  0.000000  0.000000  0.000000  0.000000
                       0.000000  0.000000  0.000000  0.000000  0.000000  0.000000
                       0.000000  0.000000  0.000000  0.000000  0.000000  0.000000
                       0.000000  0.000000  0.000000  0.000000  0.000000  0.000000
                       0.000000  0.000000  0.000000  0.000000  0.000000  0.000000
                       0.000000  0.000000  0.000000  0.000000  0.000000  0.000000
                       0.000000  0.000000  0.000000  0.000000
        optdriver1          0
        optdriver2          0
        optdriver3          0
        optdriver4          1
        optdriver5          1
        optdriver6          1
            prtwf1          1
            prtwf2          1
            prtwf3          1
            prtwf4          3
            prtwf5          3
            prtwf6          3
            rfdir1          0       0       0
            rfdir2          0       0       0
            rfdir3          0       0       0
            rfdir4          1       0       0
            rfdir5          0       1       0
            rfdir6          0       0       1
           rfelfd1          0
           rfelfd2          0
           rfelfd3          0
           rfelfd4          2
           rfelfd5          2
           rfelfd6          2
            rprim      1.0000000000E+00  0.0000000000E+00  0.0000000000E+00
                       0.0000000000E+00  1.0000000000E+00  0.0000000000E+00
                       0.0000000000E+00  0.0000000000E+00  2.9414414678E+00
           shiftk      5.00000000E-01  5.00000000E-01  5.00000000E-01
          spgroup         129
           symrel      1  0  0   0  1  0   0  0  1      -1  0  0   0 -1  0   0  0 -1
                      -1  0  0   0  1  0   0  0 -1       1  0  0   0 -1  0   0  0  1
                      -1  0  0   0 -1  0   0  0  1       1  0  0   0  1  0   0  0 -1
                       1  0  0   0 -1  0   0  0 -1      -1  0  0   0  1  0   0  0  1
                       0  1  0   1  0  0   0  0  1       0 -1  0  -1  0  0   0  0 -1
                       0 -1  0   1  0  0   0  0 -1       0  1  0  -1  0  0   0  0  1
                       0 -1  0  -1  0  0   0  0  1       0  1  0   1  0  0   0  0 -1
                       0  1  0  -1  0  0   0  0 -1       0 -1  0   1  0  0   0  0  1
            tnons      0.0000000  0.0000000  0.0000000     0.5000000  0.5000000  0.0000000
                       0.5000000  0.5000000  0.0000000     0.0000000  0.0000000  0.0000000
                       0.0000000  0.0000000  0.0000000     0.5000000  0.5000000  0.0000000
                       0.5000000  0.5000000  0.0000000     0.0000000  0.0000000  0.0000000
                       0.5000000  0.5000000  0.0000000     0.0000000  0.0000000  0.0000000
                       0.0000000  0.0000000  0.0000000     0.5000000  0.5000000  0.0000000
                       0.5000000  0.5000000  0.0000000     0.0000000  0.0000000  0.0000000
                       0.0000000  0.0000000  0.0000000     0.5000000  0.5000000  0.0000000
           tolwfr      1.00000000E-20
            typat      1  1  2  2
           vdw_xc           5
              wtk1       0.01389    0.02778    0.02778    0.02778    0.02778    0.02778
                         0.01389    0.02778    0.02778    0.02778    0.02778    0.01389
                         0.02778    0.02778    0.02778    0.01389    0.02778    0.02778
                         0.01389    0.02778    0.01389    0.01389    0.02778    0.02778
                         0.02778    0.02778    0.02778    0.01389    0.02778    0.02778
                         0.02778    0.02778    0.01389    0.02778    0.02778    0.02778
                         0.01389    0.02778    0.02778    0.01389    0.02778    0.01389
              wtk2       0.01389    0.02778    0.02778    0.02778    0.02778    0.02778
                         0.01389    0.02778    0.02778    0.02778    0.02778    0.01389
                         0.02778    0.02778    0.02778    0.01389    0.02778    0.02778
                         0.01389    0.02778    0.01389    0.01389    0.02778    0.02778
                         0.02778    0.02778    0.02778    0.01389    0.02778    0.02778
                         0.02778    0.02778    0.01389    0.02778    0.02778    0.02778
                         0.01389    0.02778    0.02778    0.01389    0.02778    0.01389
              wtk3       0.00347    0.00347    0.00347    0.00347    0.00347    0.00347
                         0.00347    0.00347    0.00347    0.00347    0.00347    0.00347
                         0.00347    0.00347    0.00347    0.00347    0.00347    0.00347
                         0.00347    0.00347    0.00347    0.00347    0.00347    0.00347
                         0.00347    0.00347    0.00347    0.00347    0.00347    0.00347
                         0.00347    0.00347    0.00347    0.00347    0.00347    0.00347
                         0.00347    0.00347    0.00347    0.00347    0.00347    0.00347
                         0.00347    0.00347    0.00347    0.00347    0.00347    0.00347
                         0.00347    0.00347
              wtk4       0.00347    0.00347    0.00347    0.00347    0.00347    0.00347
                         0.00347    0.00347    0.00347    0.00347    0.00347    0.00347
                         0.00347    0.00347    0.00347    0.00347    0.00347    0.00347
                         0.00347    0.00347    0.00347    0.00347    0.00347    0.00347
                         0.00347    0.00347    0.00347    0.00347    0.00347    0.00347
                         0.00347    0.00347    0.00347    0.00347    0.00347    0.00347
                         0.00347    0.00347    0.00347    0.00347    0.00347    0.00347
                         0.00347    0.00347    0.00347    0.00347    0.00347    0.00347
                         0.00347    0.00347
              wtk5       0.00347    0.00347    0.00347    0.00347    0.00347    0.00347
                         0.00347    0.00347    0.00347    0.00347    0.00347    0.00347
                         0.00347    0.00347    0.00347    0.00347    0.00347    0.00347
                         0.00347    0.00347    0.00347    0.00347    0.00347    0.00347
                         0.00347    0.00347    0.00347    0.00347    0.00347    0.00347
                         0.00347    0.00347    0.00347    0.00347    0.00347    0.00347
                         0.00347    0.00347    0.00347    0.00347    0.00347    0.00347
                         0.00347    0.00347    0.00347    0.00347    0.00347    0.00347
                         0.00347    0.00347
              wtk6       0.00347    0.00347    0.00347    0.00347    0.00347    0.00347
                         0.00347    0.00347    0.00347    0.00347    0.00347    0.00347
                         0.00347    0.00347    0.00347    0.00347    0.00347    0.00347
                         0.00347    0.00347    0.00347    0.00347    0.00347    0.00347
                         0.00347    0.00347    0.00347    0.00347    0.00347    0.00347
                         0.00347    0.00347    0.00347    0.00347    0.00347    0.00347
                         0.00347    0.00347    0.00347    0.00347    0.00347    0.00347
                         0.00347    0.00347    0.00347    0.00347    0.00347    0.00347
                         0.00347    0.00347
                       outvars : Printing only first  50 k-points.
           xangst      2.0538509643E+00  0.0000000000E+00  4.6664677603E+00
                       0.0000000000E+00  2.0538509643E+00  7.4160970295E+00
                       2.0538509643E+00  0.0000000000E+00  7.3843319666E+00
                       0.0000000000E+00  2.0538509643E+00  4.6982328231E+00
            xcart      3.8812158402E+00  0.0000000000E+00  8.8183460748E+00
                       0.0000000000E+00  3.8812158402E+00  1.4014392361E+01
                       3.8812158402E+00  0.0000000000E+00  1.3954365091E+01
                       0.0000000000E+00  3.8812158402E+00  8.8783733442E+00
             xred      5.0000000000E-01  0.0000000000E+00  3.8621500000E-01
                       0.0000000000E+00  5.0000000000E-01  6.1378500000E-01
                       5.0000000000E-01  0.0000000000E+00  6.1115600000E-01
                       0.0000000000E+00  5.0000000000E-01  3.8884400000E-01
            znucl       50.00000   34.00000

================================================================================

 chkinp: Checking input parameters for consistency, jdtset=   1.

 chkinp: Checking input parameters for consistency, jdtset=   2.

 chkinp: Checking input parameters for consistency, jdtset=   3.

 chkinp: Checking input parameters for consistency, jdtset=   4.

 chkinp: Checking input parameters for consistency, jdtset=   5.

 chkinp: Checking input parameters for consistency, jdtset=   6.
 DATA TYPE INFORMATION: 
 REAL:      Data type name: REAL(DP) 
            Kind value:      8
            Precision:      15
            Smallest nonnegligible quantity relative to 1: 0.22204460E-015
            Smallest positive number:                      0.22250739E-307
            Largest representable number:                  0.17976931E+309
 INTEGER:   Data type name: INTEGER(default) 
            Kind value: 4
            Bit size:   32
            Largest representable number: 2147483647
 LOGICAL:   Data type name: LOGICAL 
            Kind value: 4
 CHARACTER: Data type name: CHARACTER             Kind value: 1

  ==== OpenMP parallelism is OFF ====
 
  ==== Using MPI-2 specifications ==== 
  MPI-IO support is ON
  xmpi_tag_ub ................   2147483647
  xmpi_bsize_ch ..............            1
  xmpi_bsize_int .............            4
  xmpi_bsize_sp ..............            4
  xmpi_bsize_dp ..............            8
  xmpi_bsize_spc .............            8
  xmpi_bsize_dpc .............           16
  xmpio_bsize_frm ............            4
  xmpi_address_kind ..........            8
  xmpi_offset_kind ...........            8
  MPI_WTICK ..................    1.0000000000000001E-009

================================================================================
== DATASET  1 ==================================================================
-   mpi_nproc: 6, omp_nthreads: -1 (-1 if OMP is not activated)


--- !COMMENT
src_file: m_xgScalapack.F90
src_line: 236
message: |
    xgScalapack in auto mode
...


 getdim_nloc : deduce lmnmax  =  18, lnmax  =   6,
                      lmnmaxso=  18, lnmaxso=   6.
 Exchange-correlation functional for the present dataset will be:
  GGA: Perdew-Burke-Ernzerhof functional - ixc=11
 Citation for XC functional:
  J.P.Perdew, K.Burke, M.Ernzerhof, PRL 77, 3865 (1996)

 Unit cell volume ucvol=  1.3757945E+03 bohr^3
 Angles (23,13,12)=  9.00000000E+01  9.00000000E+01  9.00000000E+01 degrees

 getcut: wavevector=  0.0000  0.0000  0.0000  ngfft=  36  36 100
         ecut(hartree)=     22.500   => boxcut(ratio)=   2.05109
- pspini: atom type   1  psp file is ../../../Psps_for_tests/ATOMICDATA_NC/Sn.psp8
- pspatm: opening atomic psp file    ../../../Psps_for_tests/ATOMICDATA_NC/Sn.psp8
- Sn    ONCVPSP  r_core=  2.27  2.62  1.86
- 50.00000  14.00000    150810                znucl, zion, pspdat
    8   11    2    4       600   0.00000      pspcod,pspxc,lmax,lloc,mmax,r2well
    5.99000000000000    6.50000000000000    0.00000000000000   rchrg,fchrg,qchrg
     nproj     2     2     2
     extension_switch     1
  valence charge integrates to:    13.912521222389802     
  pspatm : epsatm=   32.65190642
         --- l  ekb(1:nproj) -->
             0    5.462393    0.682281
             1    4.443814    0.825686
             2   -5.382195   -1.704077
 pspatm: atomic psp has been read  and splines computed

- pspini: atom type   2  psp file is ../../../Psps_for_tests/ATOMICDATA_NC/Se.psp8
- pspatm: opening atomic psp file    ../../../Psps_for_tests/ATOMICDATA_NC/Se.psp8
- Se    ONCVPSP  r_core=  1.82  1.50  1.91
- 34.00000  16.00000    150729                znucl, zion, pspdat
    8   11    2    4       600   0.00000      pspcod,pspxc,lmax,lloc,mmax,r2well
    5.99000000000000    5.00000000000000    0.00000000000000   rchrg,fchrg,qchrg
     nproj     2     2     2
     extension_switch     1
  valence charge integrates to:    15.981819523532332     
  pspatm : epsatm=   29.53325930
         --- l  ekb(1:nproj) -->
             0    8.612261    0.939919
             1    6.984962    1.281898
             2   -9.322521   -3.856218
 pspatm: atomic psp has been read  and splines computed

   7.46221989E+03                                ecore*ucvol(ha*bohr**3)
 ==== Info on pseudopotentials ====
  Norm-conserving pseudopotentials
  Number of pseudopotentials ..    2
  Number of types of atoms   ..    2
  Scalar calculation (no spin-orbit term)
  Nonlocal part applied using Legendre polynomials
  Max number of non-local projectors over l and type   2
  Highest angular momentum +1 .......   3
  Max number of (l,n)   components ..   6
  Max number of (l,m,n) components ..   6

 Pseudo-Core Charge Info: 
   Number of radial points for pseudo-core charge .. 2501
   XC core-correction treatment (optnlxccc) ........    1
   Radius for pseudo-core charge for each type ..... 

  - Atom type    1 has pseudo-core radius ..  5.9900
  - Atom type    2 has pseudo-core radius ..  5.9900

 Info on the Q-grid used for form factors in spline form: 
   Number of q-points for radial functions ffspl ..   4876
   Number of q-points for vlspl ...................   4876
   vloc is computed in Reciprocal Space
   model core charge treated in real-space

  XC functional for type 1 is 11
  Pseudo valence available: yes
  XC functional for type 2 is 11
  Pseudo valence available: yes

 wfconv:    31 bands initialized randomly with npw=  7039, for ikpt=     1
 wfconv:    31 bands initialized randomly with npw=  7037, for ikpt=     2
 wfconv:    31 bands initialized randomly with npw=  7008, for ikpt=     3
 wfconv:    31 bands initialized randomly with npw=  7000, for ikpt=     4
 wfconv:    31 bands initialized randomly with npw=  7016, for ikpt=     5
 wfconv:    31 bands initialized randomly with npw=  7028, for ikpt=     6
 wfconv:    31 bands initialized randomly with npw=  7028, for ikpt=     7
_setup2: Arith. and geom. avg. npw (full set) are    7012.792    7012.784
 initro: for itypat=  1, take pseudo charge density from pp file
 initro: for itypat=  2, take pseudo charge density from pp file

================================================================================

 getcut: wavevector=  0.0000  0.0000  0.0000  ngfft=  36  36 100
         ecut(hartree)=     22.500   => boxcut(ratio)=   2.05109

 1/G**2 cut-off applied in the following step : cutoff-mode = CRYSTAL

  --------------------------------------------------------------
  Van der Waals DFT-D2 semi-empirical dispersion potential added
      with following parameters:
      Specie  C6 (J.nm^6.mol^-1)  R0 (Ang)
      ------------------------------------
         Sn           38.71         1.804
         Se           12.64         1.771

      Scaling factor   =   0.75
      Damping parameter=  20.00
      Cut-off radius   = 130.92 bohr

      Number of pairs contributing =    68390
      DFT-D2 energy contribution   =   -3.69610E-02 Ha
  --------------------------------------------------------------


 1/G**2 cut-off applied in the following step : cutoff-mode = CRYSTAL

 1/G**2 cut-off applied in the following step : cutoff-mode = CRYSTAL

--- !WARNING
src_file: m_drivexc.F90
src_line: 707
message: |
    Density went too small (lower than xc_denpos) at 12664 points
    and was set to xc_denpos =   1.00E-14. Lowest was  -0.41E-03.
    Likely due to too low boxcut or too low ecut for pseudopotential core charge.
...


 ITER STEP NUMBER     1
 vtorho: nnsclo_now = 2, note that nnsclo, dbl_nnsclo, istep= 0 0 1
 Total charge density [el/Bohr^3]
      Maximum=    2.0128E+00  at reduced coord.    0.5000    0.9722    0.5800
      Minimum=    2.4281E-03  at reduced coord.    0.2222    0.1944    0.0000
   Integrated=    6.0000E+01

 1/G**2 cut-off applied in the following step : cutoff-mode = CRYSTAL
 ETOT  1  -384.85495256119    -3.849E+02 9.352E-01 3.238E+04
 scprqt: <Vxc>= -2.9245042E-01 hartree

 Simple mixing update:
  residual square of the potential:    2204.5780315584052
 scfcv_core: previous iteration took 16.21 [s]

 ITER STEP NUMBER     2
 vtorho: nnsclo_now = 2, note that nnsclo, dbl_nnsclo, istep= 0 0 2
 Total charge density [el/Bohr^3]
      Maximum=    2.2886E+00  at reduced coord.    0.5278    0.9722    0.6400
      Minimum=    1.2298E-05  at reduced coord.    0.0000    0.0000    0.0000
   Integrated=    6.0000E+01
 ETOT  2  -396.93616837442    -1.208E+01 9.806E-02 6.953E+03
 scprqt: <Vxc>= -2.0676731E-01 hartree

 Pulay update with  1 previous iterations:
 mixing of old trial potential: alpha(m:m-4)=  0.569      0.431
 scfcv_core: previous iteration took 15.58 [s]

 ITER STEP NUMBER     3
 vtorho: nnsclo_now = 1, note that nnsclo, dbl_nnsclo, istep= 0 0 3
 Total charge density [el/Bohr^3]
      Maximum=    2.2365E+00  at reduced coord.    0.5278    0.9722    0.6400
      Minimum=    5.0528E-06  at reduced coord.    0.3889    0.0000    0.0100
   Integrated=    6.0000E+01
 ETOT  3  -397.73868949646    -8.025E-01 2.722E-02 2.680E+03
 scprqt: <Vxc>= -2.1298744E-01 hartree

 Pulay update with  2 previous iterations:
 mixing of old trial potential: alpha(m:m-4)=  0.706      0.514E-01  0.243
 scfcv_core: previous iteration took  7.99 [s]

 ITER STEP NUMBER     4
 vtorho: nnsclo_now = 1, note that nnsclo, dbl_nnsclo, istep= 0 0 4
 Total charge density [el/Bohr^3]
      Maximum=    2.2279E+00  at reduced coord.    0.5278    0.9722    0.6400
      Minimum=    4.9696E-06  at reduced coord.    0.0000    0.0000    0.0000
   Integrated=    6.0000E+01
 ETOT  4  -397.81561757998    -7.693E-02 8.158E-03 1.584E+03
 scprqt: <Vxc>= -2.1520197E-01 hartree

 Pulay update with  3 previous iterations:
 mixing of old trial potential: alpha(m:m-4)=  0.976     -0.603E-01 -0.505E-01  0.135
 scfcv_core: previous iteration took  7.97 [s]

 ITER STEP NUMBER     5
 vtorho: nnsclo_now = 1, note that nnsclo, dbl_nnsclo, istep= 0 0 5
 Total charge density [el/Bohr^3]
      Maximum=    2.2211E+00  at reduced coord.    0.5278    0.9722    0.6400
      Minimum=    5.0020E-06  at reduced coord.    0.0000    0.0000    0.0000
   Integrated=    6.0000E+01
 ETOT  5  -397.85008956793    -3.447E-02 1.227E-03 8.758E+02
 scprqt: <Vxc>= -2.1719322E-01 hartree

 Pulay update with  4 previous iterations:
 mixing of old trial potential: alpha(m:m-4)=  0.707      0.176      0.505E-01 -0.411E-01  0.107
 scfcv_core: previous iteration took  7.78 [s]

 ITER STEP NUMBER     6
 vtorho: nnsclo_now = 1, note that nnsclo, dbl_nnsclo, istep= 0 0 6
 Total charge density [el/Bohr^3]
      Maximum=    2.2195E+00  at reduced coord.    0.5278    0.9722    0.6400
      Minimum=    5.0245E-06  at reduced coord.    0.0000    0.0000    0.0000
   Integrated=    6.0000E+01
 ETOT  6  -397.85788665621    -7.797E-03 7.721E-04 6.508E+02
 scprqt: <Vxc>= -2.1789435E-01 hartree

 Pulay update with  5 previous iterations:
 mixing of old trial potential: alpha(m:m-4)=   1.02     -0.138     -0.960E-02  0.653E-01 -0.249E-01
 scfcv_core: previous iteration took  8.02 [s]

 ITER STEP NUMBER     7
 vtorho: nnsclo_now = 1, note that nnsclo, dbl_nnsclo, istep= 0 0 7
 Total charge density [el/Bohr^3]
      Maximum=    2.2179E+00  at reduced coord.    0.5278    0.9722    0.6400
      Minimum=    5.0827E-06  at reduced coord.    0.0000    0.0000    0.0000
   Integrated=    6.0000E+01
 ETOT  7  -397.86348724519    -5.601E-03 4.349E-04 4.584E+02
 scprqt: <Vxc>= -2.1856451E-01 hartree

 Pulay update with  6 previous iterations:
 mixing of old trial potential: alpha(m:m-4)=   1.15     -0.109      0.190E-01 -0.180      0.715E-01
 scfcv_core: previous iteration took  7.84 [s]

 ITER STEP NUMBER     8
 vtorho: nnsclo_now = 1, note that nnsclo, dbl_nnsclo, istep= 0 0 8
 Total charge density [el/Bohr^3]
      Maximum=    2.2163E+00  at reduced coord.    0.5278    0.9722    0.6400
      Minimum=    5.1832E-06  at reduced coord.    0.0000    0.0000    0.0000
   Integrated=    6.0000E+01
 ETOT  8  -397.86842183963    -4.935E-03 3.623E-04 2.790E+02
 scprqt: <Vxc>= -2.1934629E-01 hartree

 Pulay update with  7 previous iterations:
 mixing of old trial potential: alpha(m:m-4)=  0.691      0.191      0.247     -0.547E-01 -0.180
 scfcv_core: previous iteration took  7.97 [s]

 ITER STEP NUMBER     9
 vtorho: nnsclo_now = 1, note that nnsclo, dbl_nnsclo, istep= 0 0 9
 Total charge density [el/Bohr^3]
      Maximum=    2.2156E+00  at reduced coord.    0.5278    0.9722    0.6400
      Minimum=    5.2288E-06  at reduced coord.    0.0000    0.0000    0.0000
   Integrated=    6.0000E+01
 ETOT  9  -397.87010039947    -1.679E-03 4.210E-04 2.109E+02
 scprqt: <Vxc>= -2.1969763E-01 hartree

 Pulay update with  7 previous iterations:
 mixing of old trial potential: alpha(m:m-4)=   1.81     -0.965      0.465     -0.371E-01 -0.190E-01
 scfcv_core: previous iteration took  8.00 [s]

 ITER STEP NUMBER    10
 vtorho: nnsclo_now = 1, note that nnsclo, dbl_nnsclo, istep= 0 0 10
 Total charge density [el/Bohr^3]
      Maximum=    2.2119E+00  at reduced coord.    0.5278    0.9722    0.6400
      Minimum=    5.6021E-06  at reduced coord.    0.0000    0.0000    0.0000
   Integrated=    6.0000E+01
 ETOT 10  -397.87440581234    -4.305E-03 1.380E-03 4.565E+01
 scprqt: <Vxc>= -2.2130974E-01 hartree

 Pulay update with  7 previous iterations:
 mixing of old trial potential: alpha(m:m-4)=  0.197       1.35     -0.665      0.429     -0.270E-01
 scfcv_core: previous iteration took  7.93 [s]

 ITER STEP NUMBER    11
 vtorho: nnsclo_now = 1, note that nnsclo, dbl_nnsclo, istep= 0 0 11
 Total charge density [el/Bohr^3]
      Maximum=    2.2118E+00  at reduced coord.    0.5278    0.9722    0.6400
      Minimum=    5.5690E-06  at reduced coord.    0.0000    0.0000    0.0000
   Integrated=    6.0000E+01
 ETOT 11  -397.87446183792    -5.603E-05 3.436E-04 3.732E+01
 scprqt: <Vxc>= -2.2139071E-01 hartree

 Pulay update with  7 previous iterations:
 mixing of old trial potential: alpha(m:m-4)=   2.67      -2.23      0.842     -0.553      0.399
 scfcv_core: previous iteration took  8.01 [s]

 ITER STEP NUMBER    12
 vtorho: nnsclo_now = 1, note that nnsclo, dbl_nnsclo, istep= 0 0 12
 Total charge density [el/Bohr^3]
      Maximum=    2.2119E+00  at reduced coord.    0.5278    0.9722    0.6400
      Minimum=    5.6308E-06  at reduced coord.    0.0000    0.0000    0.0000
   Integrated=    6.0000E+01
 ETOT 12  -397.87449192067    -3.008E-05 7.655E-04 2.608E+01
 scprqt: <Vxc>= -2.2145643E-01 hartree

 Pulay update with  7 previous iterations:
 mixing of old trial potential: alpha(m:m-4)=   2.99       1.30      -2.66     -0.729     -0.319
 scfcv_core: previous iteration took  8.00 [s]

 ITER STEP NUMBER    13
 vtorho: nnsclo_now = 1, note that nnsclo, dbl_nnsclo, istep= 0 0 13
 Total charge density [el/Bohr^3]
      Maximum=    2.2117E+00  at reduced coord.    0.5278    0.9722    0.6400
      Minimum=    5.9062E-06  at reduced coord.    0.0000    0.0000    0.0000
   Integrated=    6.0000E+01
 ETOT 13  -397.87462289741    -1.310E-04 2.243E-03 1.256E+01
 scprqt: <Vxc>= -2.2181371E-01 hartree

 Pulay update with  7 previous iterations:
 mixing of old trial potential: alpha(m:m-4)=  0.438      0.431       1.15     -0.820     -0.955E-01
 scfcv_core: previous iteration took  8.00 [s]

 ITER STEP NUMBER    14
 vtorho: nnsclo_now = 1, note that nnsclo, dbl_nnsclo, istep= 0 0 14
 Total charge density [el/Bohr^3]
      Maximum=    2.2118E+00  at reduced coord.    0.5278    0.9722    0.6400
      Minimum=    5.8454E-06  at reduced coord.    0.0000    0.0000    0.0000
   Integrated=    6.0000E+01
 ETOT 14  -397.87461362380     9.274E-06 1.622E-04 5.383E+00
 scprqt: <Vxc>= -2.2176681E-01 hartree

 Pulay update with  7 previous iterations:
 mixing of old trial potential: alpha(m:m-4)=   1.30     -0.300      0.196     -0.882      0.670
 scfcv_core: previous iteration took  8.01 [s]

 ITER STEP NUMBER    15
 vtorho: nnsclo_now = 1, note that nnsclo, dbl_nnsclo, istep= 0 0 15
 Total charge density [el/Bohr^3]
      Maximum=    2.2117E+00  at reduced coord.    0.5278    0.9722    0.6400
      Minimum=    5.9411E-06  at reduced coord.    0.0000    0.0000    0.0000
   Integrated=    6.0000E+01
 ETOT 15  -397.87464064088    -2.702E-05 3.485E-04 1.771E+00
 scprqt: <Vxc>= -2.2191632E-01 hartree

 Pulay update with  7 previous iterations:
 mixing of old trial potential: alpha(m:m-4)=  0.824      0.469     -0.424       1.21      -1.21
 scfcv_core: previous iteration took  8.00 [s]

 ITER STEP NUMBER    16
 vtorho: nnsclo_now = 1, note that nnsclo, dbl_nnsclo, istep= 0 0 16
 Total charge density [el/Bohr^3]
      Maximum=    2.2116E+00  at reduced coord.    0.5278    0.9722    0.6400
      Minimum=    5.9824E-06  at reduced coord.    0.0000    0.0000    0.0000
   Integrated=    6.0000E+01
 ETOT 16  -397.87464170597    -1.065E-06 2.972E-05 6.622E-01
 scprqt: <Vxc>= -2.2197146E-01 hartree

 Pulay update with  7 previous iterations:
 mixing of old trial potential: alpha(m:m-4)=   1.67      -1.06       1.14     -0.580      0.151
 scfcv_core: previous iteration took  8.01 [s]

 ITER STEP NUMBER    17
 vtorho: nnsclo_now = 1, note that nnsclo, dbl_nnsclo, istep= 0 0 17
 Total charge density [el/Bohr^3]
      Maximum=    2.2117E+00  at reduced coord.    0.5278    0.9722    0.6400
      Minimum=    6.0307E-06  at reduced coord.    0.0000    0.0000    0.0000
   Integrated=    6.0000E+01
 ETOT 17  -397.87464449197    -2.786E-06 2.345E-04 1.558E-01
 scprqt: <Vxc>= -2.2199690E-01 hartree

 Pulay update with  7 previous iterations:
 mixing of old trial potential: alpha(m:m-4)=   1.38     -0.390     -0.208      0.414     -0.129
 scfcv_core: previous iteration took  8.01 [s]

 ITER STEP NUMBER    18
 vtorho: nnsclo_now = 1, note that nnsclo, dbl_nnsclo, istep= 0 0 18
 Total charge density [el/Bohr^3]
      Maximum=    2.2116E+00  at reduced coord.    0.5278    0.9722    0.6400
      Minimum=    6.0269E-06  at reduced coord.    0.0000    0.0000    0.0000
   Integrated=    6.0000E+01
 ETOT 18  -397.87464408283     4.091E-07 4.919E-05 7.756E-02
 scprqt: <Vxc>= -2.2198874E-01 hartree

 Pulay update with  7 previous iterations:
 mixing of old trial potential: alpha(m:m-4)=   1.01     -0.235E-01  0.958E-01  0.130E-01 -0.432E-01
 scfcv_core: previous iteration took  8.00 [s]

 ITER STEP NUMBER    19
 vtorho: nnsclo_now = 1, note that nnsclo, dbl_nnsclo, istep= 0 0 19
 Total charge density [el/Bohr^3]
      Maximum=    2.2117E+00  at reduced coord.    0.5278    0.9722    0.6400
      Minimum=    6.0560E-06  at reduced coord.    0.0000    0.0000    0.0000
   Integrated=    6.0000E+01
 ETOT 19  -397.87464452352    -4.407E-07 1.095E-05 1.328E-02
 scprqt: <Vxc>= -2.2201066E-01 hartree

 Pulay update with  7 previous iterations:
 mixing of old trial potential: alpha(m:m-4)=  0.740      0.490     -0.246      0.272E-01  0.172E-02
 scfcv_core: previous iteration took  8.01 [s]

 ITER STEP NUMBER    20
 vtorho: nnsclo_now = 1, note that nnsclo, dbl_nnsclo, istep= 0 0 20
 Total charge density [el/Bohr^3]
      Maximum=    2.2117E+00  at reduced coord.    0.5278    0.9722    0.6400
      Minimum=    6.0525E-06  at reduced coord.    0.0000    0.0000    0.0000
   Integrated=    6.0000E+01
 ETOT 20  -397.87464456638    -4.285E-08 2.861E-05 5.345E-03
 scprqt: <Vxc>= -2.2200611E-01 hartree

 Pulay update with  7 previous iterations:
 mixing of old trial potential: alpha(m:m-4)=   1.68     -0.507     -0.186      0.158E-01  0.122E-01
 scfcv_core: previous iteration took  8.02 [s]

 ITER STEP NUMBER    21
 vtorho: nnsclo_now = 1, note that nnsclo, dbl_nnsclo, istep= 0 0 21
 Total charge density [el/Bohr^3]
      Maximum=    2.2117E+00  at reduced coord.    0.5278    0.9722    0.6400
      Minimum=    6.0598E-06  at reduced coord.    0.0000    0.0000    0.0000
   Integrated=    6.0000E+01
 ETOT 21  -397.87464460150    -3.513E-08 2.579E-05 2.163E-04
 scprqt: <Vxc>= -2.2201383E-01 hartree

 Pulay update with  7 previous iterations:
 mixing of old trial potential: alpha(m:m-4)=  0.731      0.690     -0.324     -0.122      0.202E-01
 scfcv_core: previous iteration took  8.02 [s]

 ITER STEP NUMBER    22
 vtorho: nnsclo_now = 1, note that nnsclo, dbl_nnsclo, istep= 0 0 22
 Total charge density [el/Bohr^3]
      Maximum=    2.2117E+00  at reduced coord.    0.5278    0.9722    0.6400
      Minimum=    6.0604E-06  at reduced coord.    0.0000    0.0000    0.0000
   Integrated=    6.0000E+01
 ETOT 22  -397.87464460658    -5.074E-09 7.111E-05 3.182E-05
 scprqt: <Vxc>= -2.2201411E-01 hartree

 Pulay update with  7 previous iterations:
 mixing of old trial potential: alpha(m:m-4)=   1.61     -0.536     -0.182      0.662E-01  0.455E-01
 scfcv_core: previous iteration took  8.02 [s]

 ITER STEP NUMBER    23
 vtorho: nnsclo_now = 1, note that nnsclo, dbl_nnsclo, istep= 0 0 23
 Total charge density [el/Bohr^3]
      Maximum=    2.2117E+00  at reduced coord.    0.5278    0.9722    0.6400
      Minimum=    6.0607E-06  at reduced coord.    0.0000    0.0000    0.0000
   Integrated=    6.0000E+01
 ETOT 23  -397.87464460733    -7.481E-10 5.128E-05 2.604E-06
 scprqt: <Vxc>= -2.2201476E-01 hartree

[...]
P          mkqmem3         48
P          mkqmem4         48
P          mkqmem5         48
P          mkqmem6         48
P          mk1mem1          7
P          mk1mem2          7
P          mk1mem3         48
P          mk1mem4         48
P          mk1mem5         48
P          mk1mem6         48
            natom           4
            nband1         31
            nband2        100
            nband3        100
            nband4        100
            nband5        100
            nband6        100
           nbdbuf1          0
           nbdbuf2          2
           nbdbuf3          2
           nbdbuf4          2
           nbdbuf5          2
           nbdbuf6          2
           ndtset           6
            ngfft          36      36     100
             nkpt1         42
             nkpt2         42
             nkpt3        288
             nkpt4        288
             nkpt5        288
             nkpt6        288
            nline1          4
            nline2          4
            nline3          4
            nline4          0
            nline5          0
            nline6          0
             nqpt1          0
             nqpt2          0
             nqpt3          0
             nqpt4          1
             nqpt5          1
             nqpt6          1
            nstep1        400
            nstep2        200
            nstep3        200
            nstep4          1
            nstep5          1
            nstep6          1
             nsym          16
           ntypat           2
              occ1     2.000000  2.000000  2.000000  2.000000  2.000000  2.000000
                       2.000000  2.000000  2.000000  2.000000  2.000000  2.000000
                       2.000000  2.000000  2.000000  2.000000  2.000000  2.000000
                       2.000000  2.000000  2.000000  2.000000  2.000000  2.000000
                       2.000000  2.000000  2.000000  2.000000  2.000000  2.000000
                       0.000000
              occ4     2.000000  2.000000  2.000000  2.000000  2.000000  2.000000
                       2.000000  2.000000  2.000000  2.000000  2.000000  2.000000
                       2.000000  2.000000  2.000000  2.000000  2.000000  2.000000
                       2.000000  2.000000  2.000000  2.000000  2.000000  2.000000
                       2.000000  2.000000  2.000000  2.000000  2.000000  2.000000
                       0.000000  0.000000  0.000000  0.000000  0.000000  0.000000
                       0.000000  0.000000  0.000000  0.000000  0.000000  0.000000
                       0.000000  0.000000  0.000000  0.000000  0.000000  0.000000
                       0.000000  0.000000  0.000000  0.000000  0.000000  0.000000
                       0.000000  0.000000  0.000000  0.000000  0.000000  0.000000
                       0.000000  0.000000  0.000000  0.000000  0.000000  0.000000
                       0.000000  0.000000  0.000000  0.000000  0.000000  0.000000
                       0.000000  0.000000  0.000000  0.000000  0.000000  0.000000
                       0.000000  0.000000  0.000000  0.000000  0.000000  0.000000
                       0.000000  0.000000  0.000000  0.000000  0.000000  0.000000
                       0.000000  0.000000  0.000000  0.000000  0.000000  0.000000
                       0.000000  0.000000  0.000000  0.000000
              occ5     2.000000  2.000000  2.000000  2.000000  2.000000  2.000000
                       2.000000  2.000000  2.000000  2.000000  2.000000  2.000000
                       2.000000  2.000000  2.000000  2.000000  2.000000  2.000000
                       2.000000  2.000000  2.000000  2.000000  2.000000  2.000000
                       2.000000  2.000000  2.000000  2.000000  2.000000  2.000000
                       0.000000  0.000000  0.000000  0.000000  0.000000  0.000000
                       0.000000  0.000000  0.000000  0.000000  0.000000  0.000000
                       0.000000  0.000000  0.000000  0.000000  0.000000  0.000000
                       0.000000  0.000000  0.000000  0.000000  0.000000  0.000000
                       0.000000  0.000000  0.000000  0.000000  0.000000  0.000000
                       0.000000  0.000000  0.000000  0.000000  0.000000  0.000000
                       0.000000  0.000000  0.000000  0.000000  0.000000  0.000000
                       0.000000  0.000000  0.000000  0.000000  0.000000  0.000000
                       0.000000  0.000000  0.000000  0.000000  0.000000  0.000000
                       0.000000  0.000000  0.000000  0.000000  0.000000  0.000000
                       0.000000  0.000000  0.000000  0.000000  0.000000  0.000000
                       0.000000  0.000000  0.000000  0.000000
              occ6     2.000000  2.000000  2.000000  2.000000  2.000000  2.000000
                       2.000000  2.000000  2.000000  2.000000  2.000000  2.000000
                       2.000000  2.000000  2.000000  2.000000  2.000000  2.000000
                       2.000000  2.000000  2.000000  2.000000  2.000000  2.000000
                       2.000000  2.000000  2.000000  2.000000  2.000000  2.000000
                       0.000000  0.000000  0.000000  0.000000  0.000000  0.000000
                       0.000000  0.000000  0.000000  0.000000  0.000000  0.000000
                       0.000000  0.000000  0.000000  0.000000  0.000000  0.000000
                       0.000000  0.000000  0.000000  0.000000  0.000000  0.000000
                       0.000000  0.000000  0.000000  0.000000  0.000000  0.000000
                       0.000000  0.000000  0.000000  0.000000  0.000000  0.000000
                       0.000000  0.000000  0.000000  0.000000  0.000000  0.000000
                       0.000000  0.000000  0.000000  0.000000  0.000000  0.000000
                       0.000000  0.000000  0.000000  0.000000  0.000000  0.000000
                       0.000000  0.000000  0.000000  0.000000  0.000000  0.000000
                       0.000000  0.000000  0.000000  0.000000  0.000000  0.000000
                       0.000000  0.000000  0.000000  0.000000
        optdriver1          0
        optdriver2          0
        optdriver3          0
        optdriver4          1
        optdriver5          1
        optdriver6          1
            prtwf1          1
            prtwf2          1
            prtwf3          1
            prtwf4          3
            prtwf5          3
            prtwf6          3
            rfdir1          0       0       0
            rfdir2          0       0       0
            rfdir3          0       0       0
            rfdir4          1       0       0
            rfdir5          0       1       0
            rfdir6          0       0       1
           rfelfd1          0
           rfelfd2          0
           rfelfd3          0
           rfelfd4          2
           rfelfd5          2
           rfelfd6          2
            rprim      1.0000000000E+00  0.0000000000E+00  0.0000000000E+00
                       0.0000000000E+00  1.0000000000E+00  0.0000000000E+00
                       0.0000000000E+00  0.0000000000E+00  2.9414414678E+00
           shiftk      5.00000000E-01  5.00000000E-01  5.00000000E-01
          spgroup         129
           strten1     8.3074896890E-03  8.3074896890E-03  8.4165999153E-03
                       0.0000000000E+00  0.0000000000E+00  0.0000000000E+00
           symrel      1  0  0   0  1  0   0  0  1      -1  0  0   0 -1  0   0  0 -1
                      -1  0  0   0  1  0   0  0 -1       1  0  0   0 -1  0   0  0  1
                      -1  0  0   0 -1  0   0  0  1       1  0  0   0  1  0   0  0 -1
                       1  0  0   0 -1  0   0  0 -1      -1  0  0   0  1  0   0  0  1
                       0  1  0   1  0  0   0  0  1       0 -1  0  -1  0  0   0  0 -1
                       0 -1  0   1  0  0   0  0 -1       0  1  0  -1  0  0   0  0  1
                       0 -1  0  -1  0  0   0  0  1       0  1  0   1  0  0   0  0 -1
                       0  1  0  -1  0  0   0  0 -1       0 -1  0   1  0  0   0  0  1
            tnons      0.0000000  0.0000000  0.0000000     0.5000000  0.5000000  0.0000000
                       0.5000000  0.5000000  0.0000000     0.0000000  0.0000000  0.0000000
                       0.0000000  0.0000000  0.0000000     0.5000000  0.5000000  0.0000000
                       0.5000000  0.5000000  0.0000000     0.0000000  0.0000000  0.0000000
                       0.5000000  0.5000000  0.0000000     0.0000000  0.0000000  0.0000000
                       0.0000000  0.0000000  0.0000000     0.5000000  0.5000000  0.0000000
                       0.5000000  0.5000000  0.0000000     0.0000000  0.0000000  0.0000000
                       0.0000000  0.0000000  0.0000000     0.5000000  0.5000000  0.0000000
           tolwfr      1.00000000E-20
            typat      1  1  2  2
           vdw_xc           5
              wtk1       0.01389    0.02778    0.02778    0.02778    0.02778    0.02778
                         0.01389    0.02778    0.02778    0.02778    0.02778    0.01389
                         0.02778    0.02778    0.02778    0.01389    0.02778    0.02778
                         0.01389    0.02778    0.01389    0.01389    0.02778    0.02778
                         0.02778    0.02778    0.02778    0.01389    0.02778    0.02778
                         0.02778    0.02778    0.01389    0.02778    0.02778    0.02778
                         0.01389    0.02778    0.02778    0.01389    0.02778    0.01389
              wtk2       0.01389    0.02778    0.02778    0.02778    0.02778    0.02778
                         0.01389    0.02778    0.02778    0.02778    0.02778    0.01389
                         0.02778    0.02778    0.02778    0.01389    0.02778    0.02778
                         0.01389    0.02778    0.01389    0.01389    0.02778    0.02778
                         0.02778    0.02778    0.02778    0.01389    0.02778    0.02778
                         0.02778    0.02778    0.01389    0.02778    0.02778    0.02778
                         0.01389    0.02778    0.02778    0.01389    0.02778    0.01389
              wtk3       0.00347    0.00347    0.00347    0.00347    0.00347    0.00347
                         0.00347    0.00347    0.00347    0.00347    0.00347    0.00347
                         0.00347    0.00347    0.00347    0.00347    0.00347    0.00347
                         0.00347    0.00347    0.00347    0.00347    0.00347    0.00347
                         0.00347    0.00347    0.00347    0.00347    0.00347    0.00347
                         0.00347    0.00347    0.00347    0.00347    0.00347    0.00347
                         0.00347    0.00347    0.00347    0.00347    0.00347    0.00347
                         0.00347    0.00347    0.00347    0.00347    0.00347    0.00347
                         0.00347    0.00347
              wtk4       0.00347    0.00347    0.00347    0.00347    0.00347    0.00347
                         0.00347    0.00347    0.00347    0.00347    0.00347    0.00347
                         0.00347    0.00347    0.00347    0.00347    0.00347    0.00347
                         0.00347    0.00347    0.00347    0.00347    0.00347    0.00347
                         0.00347    0.00347    0.00347    0.00347    0.00347    0.00347
                         0.00347    0.00347    0.00347    0.00347    0.00347    0.00347
                         0.00347    0.00347    0.00347    0.00347    0.00347    0.00347
                         0.00347    0.00347    0.00347    0.00347    0.00347    0.00347
                         0.00347    0.00347
              wtk5       0.00347    0.00347    0.00347    0.00347    0.00347    0.00347
                         0.00347    0.00347    0.00347    0.00347    0.00347    0.00347
                         0.00347    0.00347    0.00347    0.00347    0.00347    0.00347
                         0.00347    0.00347    0.00347    0.00347    0.00347    0.00347
                         0.00347    0.00347    0.00347    0.00347    0.00347    0.00347
                         0.00347    0.00347    0.00347    0.00347    0.00347    0.00347
                         0.00347    0.00347    0.00347    0.00347    0.00347    0.00347
                         0.00347    0.00347    0.00347    0.00347    0.00347    0.00347
                         0.00347    0.00347
              wtk6       0.00347    0.00347    0.00347    0.00347    0.00347    0.00347
                         0.00347    0.00347    0.00347    0.00347    0.00347    0.00347
                         0.00347    0.00347    0.00347    0.00347    0.00347    0.00347
                         0.00347    0.00347    0.00347    0.00347    0.00347    0.00347
                         0.00347    0.00347    0.00347    0.00347    0.00347    0.00347
                         0.00347    0.00347    0.00347    0.00347    0.00347    0.00347
                         0.00347    0.00347    0.00347    0.00347    0.00347    0.00347
                         0.00347    0.00347    0.00347    0.00347    0.00347    0.00347
                         0.00347    0.00347
                       outvars : Printing only first  50 k-points.
           xangst      2.0538509643E+00  0.0000000000E+00  4.6664677603E+00
                       0.0000000000E+00  2.0538509643E+00  7.4160970295E+00
                       2.0538509643E+00  0.0000000000E+00  7.3843319666E+00
                       0.0000000000E+00  2.0538509643E+00  4.6982328231E+00
            xcart      3.8812158402E+00  0.0000000000E+00  8.8183460748E+00
                       0.0000000000E+00  3.8812158402E+00  1.4014392361E+01
                       3.8812158402E+00  0.0000000000E+00  1.3954365091E+01
                       0.0000000000E+00  3.8812158402E+00  8.8783733442E+00
             xred      5.0000000000E-01  0.0000000000E+00  3.8621500000E-01
                       0.0000000000E+00  5.0000000000E-01  6.1378500000E-01
                       5.0000000000E-01  0.0000000000E+00  6.1115600000E-01
                       0.0000000000E+00  5.0000000000E-01  3.8884400000E-01
            znucl       50.00000   34.00000

================================================================================
  

================================================================================

 Suggested references for the acknowledgment of ABINIT usage.

 The users of ABINIT have little formal obligations with respect to the ABINIT group
 (those specified in the GNU General Public License, http://www.gnu.org/copyleft/gpl.txt).
 However, it is common practice in the scientific literature,
 to acknowledge the efforts of people that have made the research possible.
 In this spirit, please find below suggested citations of work written by ABINIT developers,
 corresponding to implementations inside of ABINIT that you have used in the present run.
 Note also that it will be of great value to readers of publications presenting these results,
 to read papers enabling them to understand the theoretical formalism and details
 of the ABINIT implementation.
 For information on why they are suggested, see also https://docs.abinit.org/theory/acknowledgments.
-
- [1] The Abinit project: Impact, environment and recent developments.
- Computer Phys. Comm. 248, 107042 (2020).
- X.Gonze, B. Amadon, G. Antonius, F.Arnardi, L.Baguet, J.-M.Beuken,
- J.Bieder, F.Bottin, J.Bouchet, E.Bousquet, N.Brouwer, F.Bruneval,
- G.Brunin, T.Cavignac, J.-B. Charraud, Wei Chen, M.Cote, S.Cottenier,
- J.Denier, G.Geneste, Ph.Ghosez, M.Giantomassi, Y.Gillet, O.Gingras,
- D.R.Hamann, G.Hautier, Xu He, N.Helbig, N.Holzwarth, Y.Jia, F.Jollet,
- W.Lafargue-Dit-Hauret, K.Lejaeghere, M.A.L.Marques, A.Martin, C.Martins,
- H.P.C. Miranda, F.Naccarato, K. Persson, G.Petretto, V.Planes, Y.Pouillon,
- S.Prokhorenko, F.Ricci, G.-M.Rignanese, A.H.Romero, M.M.Schmitt, M.Torrent,
- M.J.van Setten, B.Van Troeye, M.J.Verstraete, G.Zerah and J.W.Zwanzig
- Comment: the fifth generic paper describing the ABINIT project.
- Note that a version of this paper, that is not formatted for Computer Phys. Comm. 
- is available at https://www.abinit.org/sites/default/files/ABINIT20.pdf .
- The licence allows the authors to put it on the Web.
- DOI and bibtex: see https://docs.abinit.org/theory/bibliography/#gonze2020
-
- [2] First-principles responses of solids to atomic displacements and homogeneous electric fields:,
- implementation of a conjugate-gradient algorithm. X. Gonze, Phys. Rev. B55, 10337 (1997).
- Comment: Non-vanishing rfphon and/or rfelfd, in the norm-conserving case.
- DOI and bibtex: see https://docs.abinit.org/theory/bibliography/#gonze1997
-
- [3] Dynamical matrices, Born effective charges, dielectric permittivity tensors, and ,
- interatomic force constants from density-functional perturbation theory,
- X. Gonze and C. Lee, Phys. Rev. B55, 10355 (1997).
- Comment: Non-vanishing rfphon and/or rfelfd, in the norm-conserving case.
- DOI and bibtex: see https://docs.abinit.org/theory/bibliography/#gonze1997a
-
- [4] Optimized norm-conserving Vanderbilt pseudopotentials.
- D.R. Hamann, Phys. Rev. B 88, 085117 (2013).
- Comment: Some pseudopotential generated using the ONCVPSP code were used.
- DOI and bibtex: see https://docs.abinit.org/theory/bibliography/#hamann2013
-
- [5] ABINIT: Overview, and focus on selected capabilities
- J. Chem. Phys. 152, 124102 (2020).
- A. Romero, D.C. Allan, B. Amadon, G. Antonius, T. Applencourt, L.Baguet,
- J.Bieder, F.Bottin, J.Bouchet, E.Bousquet, F.Bruneval,
- G.Brunin, D.Caliste, M.Cote,
- J.Denier, C. Dreyer, Ph.Ghosez, M.Giantomassi, Y.Gillet, O.Gingras,
- D.R.Hamann, G.Hautier, F.Jollet, G. Jomard,
- A.Martin, 
- H.P.C. Miranda, F.Naccarato, G.Petretto, N.A. Pike, V.Planes,
- S.Prokhorenko, T. Rangel, F.Ricci, G.-M.Rignanese, M.Royo, M.Stengel, M.Torrent,
- M.J.van Setten, B.Van Troeye, M.J.Verstraete, J.Wiktor, J.W.Zwanziger, and X.Gonze.
- Comment: a global overview of ABINIT, with focus on selected capabilities .
- Note that a version of this paper, that is not formatted for J. Chem. Phys 
- is available at https://www.abinit.org/sites/default/files/ABINIT20_JPC.pdf .
- The licence allows the authors to put it on the Web.
- DOI and bibtex: see https://docs.abinit.org/theory/bibliography/#romero2020
-
- [6] Recent developments in the ABINIT software package.
- Computer Phys. Comm. 205, 106 (2016).
- X.Gonze, F.Jollet, F.Abreu Araujo, D.Adams, B.Amadon, T.Applencourt,
- C.Audouze, J.-M.Beuken, J.Bieder, A.Bokhanchuk, E.Bousquet, F.Bruneval
- D.Caliste, M.Cote, F.Dahm, F.Da Pieve, M.Delaveau, M.Di Gennaro,
- B.Dorado, C.Espejo, G.Geneste, L.Genovese, A.Gerossier, M.Giantomassi,
- Y.Gillet, D.R.Hamann, L.He, G.Jomard, J.Laflamme Janssen, S.Le Roux,
- A.Levitt, A.Lherbier, F.Liu, I.Lukacevic, A.Martin, C.Martins,
- M.J.T.Oliveira, S.Ponce, Y.Pouillon, T.Rangel, G.-M.Rignanese,
- A.H.Romero, B.Rousseau, O.Rubel, A.A.Shukri, M.Stankovski, M.Torrent,
- M.J.Van Setten, B.Van Troeye, M.J.Verstraete, D.Waroquier, J.Wiktor,
- B.Xu, A.Zhou, J.W.Zwanziger.
- Comment: the fourth generic paper describing the ABINIT project.
- Note that a version of this paper, that is not formatted for Computer Phys. Comm. 
- is available at https://www.abinit.org/sites/default/files/ABINIT16.pdf .
- The licence allows the authors to put it on the Web.
- DOI and bibtex: see https://docs.abinit.org/theory/bibliography/#gonze2016
 Proc.   0 individual time (sec): cpu=       1839.1  wall=       1844.0

 Calculation completed.
.Delivered   6 WARNINGs and   0 COMMENTs to log file.

--- !FinalSummary
program: abinit
version: 9.2.2
start_datetime: Sat Feb 24 13:53:53 2024
end_datetime: Sat Feb 24 14:24:37 2024
overall_cpu_time:       11033.3
overall_wall_time:       11063.5
exit_requested_by_user: no 
timelimit: 0
pseudos: 
    Sn  : c918e999fc214fef37654f9ff7d5f03d
    Se  : f801923bd422df98a30264e8ccc86374
usepaw: 0
mpi_procs: 6
omp_threads: 1
num_warnings: 6
num_comments: 0
...
